<?xml version="1.0" ?> 
<VTKFile type="UnstructuredGrid" version="0.1" byte_order="LittleEndian">
<UnstructuredGrid>
<FieldData>
<DataArray type="Float32" Name="TIME" NumberOfTuples="1" format="ascii">0</DataArray>
</FieldData>
<Piece NumberOfPoints="1000" NumberOfCells="729">
  <Points>
    <DataArray type="Float32" NumberOfComponents="3" format="ascii">
6.051e+06 0 0
6.10878e+06 0 0
6.16656e+06 0 0
6.22433e+06 0 0
6.28211e+06 0 0
6.33989e+06 0 0
6.39767e+06 0 0
6.45544e+06 0 0
6.51322e+06 0 0
6.571e+06 0 0
6.04986e+06 0 117337
6.10763e+06 0 118457
6.1654e+06 0 119578
6.22316e+06 0 120698
6.28093e+06 0 121819
6.3387e+06 0 122939
6.39646e+06 0 124059
6.45423e+06 0 125180
6.512e+06 0 126300
6.56976e+06 0 127420
6.04645e+06 0 234630
6.10418e+06 0 236870
6.16192e+06 0 239110
6.21965e+06 0 241351
6.27739e+06 0 243591
6.33512e+06 0 245832
6.39286e+06 0 248072
6.45059e+06 0 250312
6.50832e+06 0 252553
6.56606e+06 0 254793
6.04076e+06 0 351834
6.09844e+06 0 355194
6.15612e+06 0 358553
6.2138e+06 0 361913
6.27148e+06 0 365272
6.32916e+06 0 368632
6.38684e+06 0 371991
6.44452e+06 0 375351
6.5022e+06 0 378710
6.55988e+06 0 382070
6.0328e+06 0 468907
6.09041e+06 0 473384
6.14801e+06 0 477861
6.20562e+06 0 482339
6.26322e+06 0 486816
6.32082e+06 0 491293
6.37843e+06 0 495771
6.43603e+06 0 500248
6.49364e+06 0 504725
6.55124e+06 0 509203
6.02258e+06 0 585803
6.08008e+06 0 591396
6.13759e+06 0 596990
6.1951e+06 0 602583
6.2526e+06 0 608177
6.31011e+06 0 613770
6.36762e+06 0 619364
6.42512e+06 0 624957
6.48263e+06 0 630551
6.54013e+06 0 636144
6.01009e+06 0 702478
6.06747e+06 0 709186
6.12486e+06 0 715893
6.18225e+06 0 722601
6.23963e+06 0 729309
6.29702e+06 0 736016
6.35441e+06 0 742724
6.4118e+06 0 749431
6.46918e+06 0 756139
6.52657e+06 0 762847
5.99533e+06 0 818890
6.05258e+06 0 826709
6.10983e+06 0 834528
6.16707e+06 0 842347
6.22432e+06 0 850166
6.28156e+06 0 857985
6.33881e+06 0 865805
6.39606e+06 0 873624
6.4533e+06 0 881443
6.51055e+06 0 889262
5.97833e+06 0 934993
6.03541e+06 0 943921
6.09249e+06 0 952849
6.14958e+06 0 961776
6.20666e+06 0 970704
6.26375e+06 0 979632
6.32083e+06 0 988560
6.37791e+06 0 997487
6.435e+06 0 1.00642e+06
6.49208e+06 0 1.01534e+06
5.95907e+06 0 1.05075e+06
6.01597e+06 0 1.06078e+06
6.07287e+06 0 1.07081e+06
6.12977e+06 0 1.08084e+06
6.18667e+06 0 1.09088e+06
6.24357e+06 0 1.10091e+06
6.30047e+06 0 1.11094e+06
6.35737e+06 0 1.12098e+06
6.41427e+06 0 1.13101e+06
6.47117e+06 0 1.14104e+06
6.04986e+06 117337 0
6.10763e+06 118457 0
6.1654e+06 119578 0
6.22316e+06 120698 0
6.28093e+06 121819 0
6.3387e+06 122939 0
6.39646e+06 124059 0
6.45423e+06 125180 0
6.512e+06 126300 0
6.56976e+06 127420 0
6.04872e+06 117315 117337
6.10648e+06 118435 118457
6.16424e+06 119555 119578
6.22199e+06 120675 120698
6.27975e+06 121796 121819
6.3375e+06 122916 122939
6.39526e+06 124036 124059
6.45302e+06 125156 125180
6.51077e+06 126276 126300
6.56853e+06 127396 127420
6.04531e+06 117249 234630
6.10304e+06 118368 236870
6.16076e+06 119488 239110
6.21848e+06 120607 241351
6.27621e+06 121727 243591
6.33393e+06 122846 245832
6.39165e+06 123966 248072
6.44938e+06 125086 250312
6.5071e+06 126205 252553
6.56482e+06 127325 254793
6.03963e+06 117138 351834
6.0973e+06 118257 355194
6.15497e+06 119375 358553
6.21263e+06 120494 361913
6.2703e+06 121612 365272
6.32797e+06 122731 368632
6.38564e+06 123849 371991
6.44331e+06 124968 375351
6.50098e+06 126086 378710
6.55865e+06 127205 382070
6.03167e+06 116984 468907
6.08926e+06 118101 473384
6.14686e+06 119218 477861
6.20445e+06 120335 482339
6.26204e+06 121452 486816
6.31964e+06 122569 491293
6.37723e+06 123686 495771
6.43482e+06 124803 500248
6.49242e+06 125920 504725
6.55001e+06 127037 509203
6.02144e+06 116786 585803
6.07894e+06 117901 591396
6.13644e+06 119016 596990
6.19393e+06 120131 602583
6.25143e+06 121246 608177
6.30892e+06 122361 613770
6.36642e+06 123477 619364
6.42391e+06 124592 624957
6.48141e+06 125707 630551
6.5389e+06 126822 636144
6.00896e+06 116544 702478
6.06633e+06 117656 709186
6.12371e+06 118769 715893
6.18108e+06 119882 722601
6.23846e+06 120995 729309
6.29584e+06 122108 736016
6.35321e+06 123220 742724
6.41059e+06 124333 749431
6.46797e+06 125446 756139
6.52534e+06 126559 762847
5.99421e+06 116257 818890
6.05144e+06 117368 826709
6.10868e+06 118478 834528
6.16591e+06 119588 842347
6.22315e+06 120698 850166
6.28038e+06 121808 857985
6.33762e+06 122918 865805
6.39485e+06 124028 873624
6.45209e+06 125138 881443
6.50933e+06 126248 889262
5.9772e+06 115928 934993
6.03428e+06 117035 943921
6.09135e+06 118142 952849
6.14842e+06 119249 961776
6.20549e+06 120355 970704
6.26257e+06 121462 979632
6.31964e+06 122569 988560
6.37671e+06 123676 997487
6.43379e+06 124783 1.00642e+06
6.49086e+06 125890 1.01534e+06
5.95795e+06 115554 1.05075e+06
6.01484e+06 116658 1.06078e+06
6.07173e+06 117761 1.07081e+06
6.12862e+06 118864 1.08084e+06
6.18551e+06 119968 1.09088e+06
6.2424e+06 121071 1.10091e+06
6.29929e+06 122175 1.11094e+06
6.35618e+06 123278 1.12098e+06
6.41307e+06 124381 1.13101e+06
6.46995e+06 125485 1.14104e+06
6.04645e+06 234630 0
6.10418e+06 236870 0
6.16192e+06 239110 0
6.21965e+06 241351 0
6.27739e+06 243591 0
6.33512e+06 245832 0
6.39286e+06 248072 0
6.45059e+06 250312 0
6.50832e+06 252553 0
6.56606e+06 254793 0
6.04531e+06 234586 117337
6.10304e+06 236826 118457
6.16076e+06 239066 119578
6.21848e+06 241305 120698
6.27621e+06 243545 121819
6.33393e+06 245785 122939
6.39165e+06 248025 124059
6.44938e+06 250265 125180
6.5071e+06 252505 126300
6.56482e+06 254745 127420
6.0419e+06 234453 234630
6.09959e+06 236692 236870
6.15728e+06 238931 239110
6.21497e+06 241169 241351
6.27267e+06 243408 243591
6.33036e+06 245647 245832
6.38805e+06 247885 248072
6.44574e+06 250124 250312
6.50343e+06 252363 252553
6.56112e+06 254601 254793
6.03622e+06 234233 351834
6.09386e+06 236469 355194
6.15149e+06 238706 358553
6.20913e+06 240943 361913
6.26677e+06 243179 365272
6.3244e+06 245416 368632
6.38204e+06 247652 371991
6.43968e+06 249889 375351
6.49731e+06 252125 378710
6.55495e+06 254362 382070
6.02827e+06 233924 468907
6.08583e+06 236158 473384
6.14339e+06 238391 477861
6.20095e+06 240625 482339
6.25851e+06 242859 486816
6.31607e+06 245092 491293
6.37363e+06 247326 495771
6.43119e+06 249560 500248
6.48875e+06 251793 504725
6.54631e+06 254027 509203
6.01805e+06 233528 585803
6.07551e+06 235757 591396
6.13297e+06 237987 596990
6.19044e+06 240217 602583
6.2479e+06 242447 608177
6.30536e+06 244677 613770
6.36283e+06 246907 619364
6.42029e+06 249136 624957
6.47775e+06 251366 630551
6.53522e+06 253596 636144
6.00557e+06 233043 702478
6.06291e+06 235268 709186
6.12025e+06 237494 715893
6.1776e+06 239719 722601
6.23494e+06 241944 729309
6.29229e+06 244169 736016
6.34963e+06 246395 742724
6.40697e+06 248620 749431
6.46432e+06 250845 756139
6.52166e+06 253070 762847
5.99082e+06 232471 818890
6.04803e+06 234691 826709
6.10523e+06 236911 834528
6.16243e+06 239131 842347
6.21964e+06 241350 850166
6.27684e+06 243570 857985
6.33404e+06 245790 865805
6.39125e+06 248009 873624
6.44845e+06 250229 881443
6.50565e+06 252449 889262
5.97383e+06 231812 934993
6.03087e+06 234025 943921
6.08791e+06 236239 952849
6.14495e+06 238452 961776
6.20199e+06 240666 970704
6.25904e+06 242879 979632
6.31608e+06 245093 988560
6.37312e+06 247306 997487
6.43016e+06 249519 1.00642e+06
6.4872e+06 251733 1.01534e+06
5.95459e+06 231065 1.05075e+06
6.01145e+06 233272 1.06078e+06
6.0683e+06 235478 1.07081e+06
6.12516e+06 237684 1.08084e+06
6.18202e+06 239890 1.09088e+06
6.23888e+06 242097 1.10091e+06
6.29573e+06 244303 1.11094e+06
6.35259e+06 246509 1.12098e+06
6.40945e+06 248716 1.13101e+06
6.46631e+06 250922 1.14104e+06
6.04076e+06 351834 0
6.09844e+06 355194 0
6.15612e+06 358553 0
6.2138e+06 361913 0
6.27148e+06 365272 0
6.32916e+06 368632 0
6.38684e+06 371991 0
6.44452e+06 375351 0
6.5022e+06 378710 0
6.55988e+06 382070 0
6.03963e+06 351768 117337
6.0973e+06 355127 118457
6.15497e+06 358486 119578
6.21263e+06 361845 120698
6.2703e+06 365204 121819
6.32797e+06 368562 122939
6.38564e+06 371921 124059
6.44331e+06 375280 125180
6.50098e+06 378639 126300
6.55865e+06 381998 127420
6.03622e+06 351570 234630
6.09386e+06 354927 236870
6.15149e+06 358284 239110
6.20913e+06 361641 241351
6.26677e+06 364998 243591
6.3244e+06 368355 245832
6.38204e+06 371711 248072
6.43968e+06 375068 250312
6.49731e+06 378425 252553
6.55495e+06 381782 254793
6.03054e+06 351239 351834
6.08813e+06 354593 355194
6.14571e+06 357947 358553
6.20329e+06 361300 361913
6.26087e+06 364654 365272
6.31845e+06 368008 368632
6.37604e+06 371362 371991
6.43362e+06 374716 375351
6.4912e+06 378069 378710
6.54878e+06 381423 382070
6.0226e+06 350776 468907
6.0801e+06 354126 473384
6.13761e+06 357475 477861
6.19512e+06 360825 482339
6.25262e+06 364174 486816
6.31013e+06 367523 491293
6.36764e+06 370873 495771
6.42514e+06 374222 500248
6.48265e+06 377571 504725
6.54016e+06 380921 509203
6.01239e+06 350182 585803
6.0698e+06 353525 591396
6.12721e+06 356869 596990
6.18462e+06 360213 602583
6.24202e+06 363557 608177
6.29943e+06 366900 613770
6.35684e+06 370244 619364
6.41425e+06 373588 624957
6.47166e+06 376931 630551
6.52907e+06 380275 636144
5.99992e+06 349455 702478
6.05721e+06 352792 709186
6.1145e+06 356129 715893
6.17179e+06 359466 722601
6.22908e+06 362802 729309
6.28637e+06 366139 736016
6.34366e+06 369476 742724
6.40095e+06 372813 749431
6.45824e+06 376149 756139
6.51553e+06 379486 762847
5.98519e+06 348598 818890
6.04234e+06 351926 826709
6.09949e+06 355255 834528
6.15664e+06 358583 842347
6.21379e+06 361912 850166
6.27094e+06 365240 857985
6.32809e+06 368569 865805
6.38524e+06 371898 873624
6.44239e+06 375226 881443
6.49953e+06 378555 889262
5.96821e+06 347609 934993
6.0252e+06 350928 943921
6.08219e+06 354247 952849
6.13917e+06 357566 961776
6.19616e+06 360885 970704
6.25315e+06 364204 979632
6.31014e+06 367524 988560
6.36712e+06 370843 997487
6.42411e+06 374162 1.00642e+06
6.4811e+06 377481 1.01534e+06
5.94899e+06 346489 1.05075e+06
[...]
  <PointData Scalars="scalars">
<DataArray type="Float32" Name="Depth" format="ascii">
320000
262222
204444
146667
88888.9
31111.1
-26666.7
-84444.4
-142222
-200000
320000
262222
204444
146667
88888.9
31111.1
-26666.7
-84444.4
-142222
-200000
320000
262222
204444
146667
88888.9
31111.1
-26666.7
-84444.4
-142222
-200000
320000
262222
204444
146667
88888.9
31111.1
-26666.7
-84444.4
-142222
-200000
320000
262222
204444
146667
88888.9
31111.1
-26666.7
-84444.4
-142222
-200000
320000
262222
204444
146667
88888.9
31111.1
-26666.7
-84444.4
-142222
-200000
320000
262222
204444
146667
88888.9
31111.1
-26666.7
-84444.4
-142222
-200000
320000
262222
204444
146667
88888.9
31111.1
-26666.7
-84444.4
-142222
-200000
320000
262222
204444
146667
88888.9
31111.1
-26666.7
-84444.4
-142222
-200000
320000
262222
204444
146667
88888.9
31111.1
-26666.7
-84444.4
-142222
-200000
320000
262222
204444
146667
88888.9
31111.1
-26666.7
-84444.4
-142222
-200000
320000
262222
204444
146667
88888.9
31111.1
-26666.7
-84444.4
-142222
-200000
320000
262222
204444
146667
88888.9
31111.1
-26666.7
-84444.4
-142222
-200000
320000
262222
204444
146667
88888.9
31111.1
-26666.7
-84444.4
-142222
-200000
320000
262222
204444
146667
88888.9
31111.1
-26666.7
-84444.4
-142222
-200000
320000
262222
204444
146667
88888.9
31111.1
-26666.7
-84444.4
-142222
-200000
320000
262222
204444
146667
88888.9
31111.1
-26666.7
-84444.4
-142222
-200000
320000
262222
204444
146667
88888.9
31111.1
-26666.7
-84444.4
-142222
-200000
320000
262222
204444
146667
88888.9
31111.1
-26666.7
-84444.4
-142222
-200000
320000
262222
204444
146667
88888.9
31111.1
-26666.7
-84444.4
-142222
-200000
320000
262222
204444
146667
88888.9
31111.1
-26666.7
-84444.4
-142222
-200000
320000
262222
204444
146667
88888.9
31111.1
-26666.7
-84444.4
-142222
-200000
320000
262222
204444
146667
88888.9
31111.1
-26666.7
-84444.4
-142222
-200000
320000
262222
204444
146667
88888.9
31111.1
-26666.7
-84444.4
-142222
-200000
320000
262222
204444
146667
88888.9
31111.1
-26666.7
-84444.4
-142222
-200000
320000
262222
204444
146667
88888.9
31111.1
-26666.7
-84444.4
-142222
-200000
320000
262222
204444
146667
88888.9
31111.1
-26666.7
-84444.4
-142222
-200000
320000
262222
204444
146667
88888.9
31111.1
-26666.7
-84444.4
-142222
-200000
320000
262222
204444
146667
88888.9
31111.1
-26666.7
-84444.4
-142222
-200000
320000
262222
204444
146667
88888.9
31111.1
-26666.7
-84444.4
-142222
-200000
320000
262222
204444
146667
88888.9
31111.1
-26666.7
-84444.4
-142222
-200000
320000
262222
204444
146667
88888.9
31111.1
-26666.7
-84444.4
-142222
-200000
320000
262222
204444
146667
88888.9
31111.1
-26666.7
-84444.4
-142222
-200000
320000
262222
204444
146667
88888.9
31111.1
-26666.7
-84444.4
-142222
-200000
320000
262222
204444
146667
88888.9
31111.1
-26666.7
-84444.4
-142222
-200000
320000
262222
204444
146667
88888.9
31111.1
-26666.7
-84444.4
-142222
-200000
320000
262222
204444
146667
88888.9
31111.1
-26666.7
-84444.4
-142222
-200000
320000
262222
204444
146667
88888.9
31111.1
-26666.7
-84444.4
-142222
-200000
320000
262222
204444
146667
88888.9
31111.1
-26666.7
-84444.4
-142222
-200000
320000
262222
204444
146667
88888.9
31111.1
-26666.7
-84444.4
-142222
-200000
320000
262222
204444
146667
88888.9
31111.1
-26666.7
-84444.4
-142222
-200000
320000
262222
204444
146667
88888.9
31111.1
-26666.7
-84444.4
-142222
-200000
320000
262222
204444
146667
88888.9
31111.1
-26666.7
-84444.4
-142222
-200000
320000
262222
204444
146667
88888.9
31111.1
-26666.7
-84444.4
-142222
-200000
320000
262222
204444
146667
88888.9
31111.1
-26666.7
-84444.4
-142222
-200000
320000
262222
204444
146667
88888.9
31111.1
-26666.7
-84444.4
-142222
-200000
320000
262222
204444
146667
88888.9
31111.1
-26666.7
-84444.4
-142222
-200000
320000
262222
204444
146667
88888.9
31111.1
-26666.7
-84444.4
-142222
-200000
320000
262222
204444
146667
88888.9
31111.1
-26666.7
-84444.4
-142222
-200000
320000
262222
204444
146667
88888.9
31111.1
-26666.7
-84444.4
-142222
-200000
320000
262222
204444
146667
88888.9
31111.1
-26666.7
-84444.4
-142222
-200000
320000
262222
204444
146667
88888.9
31111.1
-26666.7
-84444.4
-142222
-200000
320000
262222
204444
146667
88888.9
31111.1
-26666.7
-84444.4
-142222
-200000
320000
262222
204444
146667
88888.9
31111.1
-26666.7
-84444.4
-142222
-200000
320000
262222
204444
146667
88888.9
31111.1
-26666.7
-84444.4
-142222
-200000
320000
262222
204444
146667
88888.9
31111.1
-26666.7
-84444.4
-142222
-200000
320000
262222
204444
146667
88888.9
31111.1
-26666.7
-84444.4
-142222
-200000
320000
262222
204444
146667
88888.9
31111.1
-26666.7
-84444.4
-142222
-200000
320000
262222
204444
146667
88888.9
31111.1
-26666.7
-84444.4
-142222
-200000
320000
262222
204444
146667
88888.9
31111.1
-26666.7
-84444.4
-142222
-200000
320000
262222
204444
146667
88888.9
31111.1
-26666.7
-84444.4
-142222
-200000
320000
262222
204444
146667
88888.9
31111.1
-26666.7
-84444.4
-142222
-200000
320000
262222
204444
146667
88888.9
31111.1
-26666.7
-84444.4
-142222
-200000
320000
262222
204444
146667
88888.9
31111.1
-26666.7
-84444.4
-142222
-200000
320000
262222
204444
146667
88888.9
31111.1
-26666.7
-84444.4
-142222
-200000
320000
262222
204444
146667
88888.9
31111.1
-26666.7
-84444.4
-142222
-200000
320000
262222
204444
146667
88888.9
31111.1
-26666.7
-84444.4
-142222
-200000
320000
262222
204444
146667
88888.9
31111.1
-26666.7
-84444.4
-142222
-200000
320000
262222
204444
146667
88888.9
31111.1
-26666.7
-84444.4
-142222
-200000
320000
262222
204444
146667
88888.9
31111.1
-26666.7
-84444.4
-142222
-200000
320000
262222
204444
146667
88888.9
31111.1
-26666.7
-84444.4
-142222
-200000
320000
262222
204444
146667
88888.9
31111.1
-26666.7
-84444.4
-142222
-200000
320000
262222
204444
146667
88888.9
31111.1
-26666.7
-84444.4
-142222
-200000
320000
262222
204444
146667
88888.9
31111.1
-26666.7
-84444.4
-142222
-200000
320000
262222
204444
146667
88888.9
31111.1
-26666.7
-84444.4
-142222
-200000
320000
262222
204444
146667
88888.9
31111.1
-26666.7
-84444.4
-142222
-200000
320000
262222
204444
146667
88888.9
31111.1
-26666.7
-84444.4
-142222
-200000
320000
262222
204444
146667
88888.9
31111.1
-26666.7
-84444.4
-142222
-200000
320000
262222
204444
146667
88888.9
31111.1
-26666.7
-84444.4
-142222
-200000
320000
262222
204444
146667
88888.9
31111.1
-26666.7
-84444.4
-142222
-200000
320000
262222
204444
146667
88888.9
31111.1
-26666.7
-84444.4
-142222
-200000
320000
262222
204444
146667
88888.9
31111.1
-26666.7
-84444.4
-142222
-200000
320000
262222
204444
146667
88888.9
31111.1
-26666.7
-84444.4
-142222
-200000
320000
262222
204444
146667
88888.9
31111.1
-26666.7
-84444.4
-142222
-200000
320000
262222
204444
146667
88888.9
31111.1
-26666.7
-84444.4
-142222
-200000
320000
262222
204444
146667
88888.9
31111.1
-26666.7
-84444.4
-142222
-200000
320000
262222
204444
146667
88888.9
31111.1
-26666.7
-84444.4
-142222
-200000
320000
262222
204444
146667
88888.9
31111.1
-26666.7
-84444.4
-142222
-200000
320000
262222
204444
146667
88888.9
31111.1
-26666.7
-84444.4
-142222
-200000
320000
262222
204444
146667
88888.9
31111.1
-26666.7
-84444.4
-142222
-200000
320000
262222
204444
146667
88888.9
31111.1
-26666.7
-84444.4
-142222
-200000
320000
262222
204444
146667
88888.9
31111.1
-26666.7
-84444.4
-142222
-200000
320000
262222
204444
146667
88888.9
31111.1
-26666.7
-84444.4
-142222
-200000
320000
262222
204444
146667
88888.9
31111.1
-26666.7
-84444.4
-142222
-200000
320000
262222
204444
146667
88888.9
31111.1
-26666.7
-84444.4
-142222
-200000
320000
262222
204444
146667
88888.9
31111.1
-26666.7
-84444.4
-142222
-200000
320000
262222
204444
146667
88888.9
31111.1
-26666.7
-84444.4
-142222
-200000
320000
262222
204444
146667
88888.9
31111.1
-26666.7
-84444.4
-142222
-200000
320000
262222
204444
146667
88888.9
31111.1
-26666.7
-84444.4
-142222
-200000
320000
262222
204444
146667
88888.9
31111.1
-26666.7
-84444.4
-142222
-200000
</DataArray>
    <DataArray type="Float32" Name="Temperature" format="ascii">
1749.98
1721.9
1694.26
1667.07
1515.93
721.124
5
5
5
5
1749.98
1721.9
1694.26
1667.07
1515.93
721.124
5
5
5
5
1749.98
1721.9
1694.26
1667.07
1515.93
721.124
5
5
5
5
1749.98
1721.9
1694.26
1667.07
1515.93
721.124
5
5
5
5
1749.98
1721.9
1694.26
1667.07
1515.93
721.124
5
5
5
5
1749.98
1721.9
1694.26
1667.07
1515.93
721.124
5
5
5
5
1749.98
1721.9
1694.26
1667.07
1515.93
721.124
5
5
5
5
1749.98
1721.9
1694.26
1667.07
1515.93
721.124
5
5
5
5
1749.98
1721.9
1694.26
1667.07
1515.93
721.124
5
5
5
5
1749.98
1721.9
1694.26
1667.07
1515.93
721.124
5
5
5
5
1749.98
1721.9
1694.26
1667.07
1515.93
721.124
5
5
5
5
1749.98
1721.9
1694.26
1667.07
1515.93
721.124
5
5
5
5
1749.98
1721.9
1694.26
1667.07
1515.93
721.124
5
5
5
5
1749.98
1721.9
1694.26
1667.07
1515.93
721.124
5
5
5
5
1749.98
1721.9
1694.26
1667.07
1515.93
721.124
5
5
5
5
1749.98
1721.9
1694.26
1667.07
1515.93
721.124
5
5
5
5
1749.98
1721.9
1694.26
1667.07
1515.93
721.124
5
5
5
5
1749.98
1721.9
1694.26
1667.07
1515.93
721.124
5
5
5
5
1749.98
1721.9
1694.26
1667.07
1515.93
721.124
5
5
5
5
1749.98
1721.9
1694.26
1667.07
1515.93
721.124
5
5
5
5
1749.98
1721.9
1694.26
1667.07
1515.93
721.124
5
5
5
5
1749.98
1721.9
1694.26
1667.07
1515.93
721.124
5
5
5
5
1749.98
1721.9
1694.26
1667.07
1515.93
721.124
5
5
5
5
1749.98
1721.9
1694.26
1667.07
1515.93
721.124
5
5
5
5
1749.98
1721.9
1694.26
1667.07
1515.93
721.124
5
5
5
5
1749.98
1721.9
1694.26
1667.07
1515.93
721.124
5
5
5
5
1749.98
1721.9
1694.26
1667.07
1515.93
721.124
5
5
5
5
1749.98
1721.9
1694.26
1667.07
1515.93
721.124
5
5
5
5
1749.98
1721.9
1694.26
1667.07
1515.93
721.124
5
5
5
5
1749.98
1721.9
1694.26
1667.07
1515.93
721.124
5
5
5
5
1749.98
1721.9
1694.26
1667.07
1515.93
721.124
5
5
5
5
1749.98
1721.9
1694.26
1667.07
1515.93
721.124
5
5
5
5
1749.98
1721.9
1694.26
1667.07
1515.93
721.124
5
5
5
5
1749.98
1721.9
1694.26
1667.07
1515.93
721.124
5
5
5
5
1749.98
1721.9
1694.26
1667.07
1515.93
721.124
5
5
5
5
1749.98
1721.9
1694.26
1667.07
1515.93
721.124
5
5
5
5
1749.98
1721.9
1694.26
1667.07
1515.93
721.124
5
5
5
5
1749.98
1721.9
1694.26
1667.07
1515.93
721.124
5
5
5
5
1749.98
1721.9
1694.26
1667.07
1515.93
721.124
5
5
5
5
1749.98
1721.9
1694.26
1667.07
1515.93
721.124
5
5
5
5
1749.98
1721.9
1694.26
1667.07
1515.93
721.124
5
5
5
5
1749.98
1721.9
1694.26
1667.07
1515.93
721.124
5
5
5
5
1749.98
1721.9
1694.26
1667.07
1515.93
721.124
5
5
5
5
1749.98
1721.9
1694.26
1667.07
1515.93
721.124
5
5
5
5
1749.98
1721.9
1694.26
1667.07
1515.93
721.124
5
5
5
5
1749.98
1721.9
1694.26
1667.07
1515.93
721.124
5
5
5
5
1749.98
1721.9
1694.26
1667.07
1515.93
721.124
5
5
5
5
1749.98
1721.9
1694.26
1667.07
1515.93
721.124
5
5
5
5
1749.98
1721.9
1694.26
1667.07
1515.93
721.124
5
5
5
5
1749.98
1721.9
1694.26
1667.07
1515.93
721.124
5
5
5
5
1749.98
1721.9
1694.26
1667.07
1397.47
600.201
5
5
5
5
1749.98
1721.9
1694.26
1667.07
1397.37
600.202
5
5
5
5
1749.98
1721.9
1694.26
1667.07
1397.08
600.208
5
5
5
5
1749.98
1721.9
1694.26
1667.07
1396.6
600.218
5
5
5
5
1749.98
1721.9
1694.26
1667.07
1395.93
600.235
5
5
5
5
1749.98
1721.9
1694.26
1667.07
1510.03
688.167
5
5
5
5
1749.98
1721.9
1694.26
1667.07
1261.19
631.963
5
5
5
5
1749.98
1721.9
1694.26
1667.07
1261.19
631.963
5
5
5
5
1749.98
1721.9
1694.26
1667.07
1261.19
631.963
5
5
5
5
1749.98
1721.9
1694.26
1667.07
1261.19
631.963
5
5
5
5
1749.98
1721.9
1590.93
993.852
936.232
631.963
5
5
5
5
1749.98
1721.9
1590.53
993.67
936.142
631.963
5
5
5
5
1749.98
1721.9
1589.34
993.127
935.861
631.963
5
5
5
5
1749.98
1721.9
1587.37
992.237
935.353
631.963
5
5
5
5
1749.98
1721.9
1418.93
853.484
1473.66
631.963
5
5
5
5
1749.98
1721.9
1694.26
1394.22
821.814
631.963
5
5
5
5
1749.98
1721.9
1694.26
1667.07
1247.35
542.771
5
5
5
5
1749.98
1721.9
1694.26
1667.07
1504.78
687.132
5
5
5
5
1749.98
1721.9
1694.26
1667.07
1261.19
631.963
5
5
5
5
1749.98
1721.9
1694.26
1667.07
1261.19
631.963
5
5
5
5
1585.43
979.905
1194.29
1667.07
1261.19
631.963
5
5
5
5
1584.81
979.529
1194.89
1667.07
1261.19
631.963
5
5
5
5
1582.97
978.41
1196.67
1667.07
1261.19
631.963
5
5
5
5
1579.94
976.572
1199.56
1667.07
1261.19
631.963
5
5
5
5
1477.35
909.683
1353.21
1667.07
1261.19
631.963
5
5
5
5
1749.98
1416.28
858.8
1482.17
1261.19
631.963
5
5
5
5
1749.98
1721.9
1379.39
829.233
1538.64
631.963
5
5
5
5
1749.98
1721.9
1694.26
1366.28
809.571
631.963
5
5
5
5
1749.98
1721.9
1694.26
1667.07
1236.74
542.923
5
5
5
5
1749.98
1721.9
1694.26
1667.07
1499.19
686.126
5
5
5
5
1169.99
1721.9
1694.26
1667.07
1261.19
631.963
5
5
5
5
1171
1721.9
1694.26
1667.07
1261.19
631.963
5
5
5
5
1174.01
1721.9
1694.26
1667.07
1261.19
631.963
5
5
5
5
1178.98
1721.9
1694.26
1667.07
1261.19
631.963
5
5
5
5
1185.8
1721.9
1694.26
1667.07
1261.19
631.963
5
5
5
5
928.577
1330.63
1694.26
1667.07
1261.19
631.963
5
5
5
5
1414.78
869.253
1480.38
1667.07
1261.19
631.963
5
5
5
5
1749.98
1366.28
828.404
1577.23
1261.19
631.963
5
5
5
5
1749.98
1721.9
1341.58
807.723
1588.69
631.963
5
5
5
5
1749.98
1721.9
1694.26
1340.05
799.154
631.963
5
5
5
5
1749.98
1721.9
1694.26
1667.07
1261.19
631.963
5
5
5
5
1749.98
1721.9
1694.26
1667.07
1261.19
631.963
5
5
5
5
1749.98
1721.9
1694.26
1667.07
1261.19
631.963
5
5
5
5
1749.98
1721.9
1694.26
1667.07
1261.19
631.963
5
5
5
5
1749.98
1721.9
1694.26
1667.07
1261.19
631.963
5
5
5
5
1749.98
1721.9
1694.26
1667.07
1261.19
631.963
5
5
5
5
1308.63
1721.9
1694.26
1667.07
1261.19
631.963
5
5
5
5
884.144
1471.85
1694.26
1667.07
1261.19
631.963
5
5
5
5
1355.37
836.38
1594.88
1667.07
1261.19
631.963
5
5
5
5
1749.98
1319.74
803.555
1667.07
1261.19
631.963
5
5
5
5
    </DataArray>
  </PointData>
 </Piece>
 </UnstructuredGrid>
</VTKFile>
