<?xml version="1.0"?>
<VTKFile byte_order="LittleEndian" type="UnstructuredGrid" version="0.1">
<UnstructuredGrid>
<Piece NumberOfCells="800" NumberOfPoints="1005">
<PointData>
<DataArray Name="Depth wrt surface" format="ascii" type="Float64">
740016 740030 740045 740061 740078 740098 740119 740143 740173 740212 740301 740212 740173 740143 740119 740098 740078 740061 740045 740030 740016 740003 739990 739978 739967 739956 739946 739935 739926 739916 739907 739898 739890 739881 739873 739865 739857 739850 739842 739835 739828 739821 739815 739808 739801 739795 739789 739783 739777 739771 739765 739759 739754 739748 739743 739737 739732 739727 739722 739717 739712 739707 739702 739697 739693 739688 739683 739679 739674 739670 739666 739661 739657 739653 739649 739645 739641 739637 739633 739629 739625 739621 739617 739614 739610 739606 739603 739599 739596 739592 739589 739585 739582 739578 739575 739572 739568 739565 739562 739559 739556 739552 739549 739546 739543 739540 739537 739534 739531 739528 739526 739523 739520 739517 739514 739511 750000 750000 750000 750000 750000 750000 750000 750000 750000 750000 750000 750000 750000 750000 750000 750000 750000 750000 750000 750000 750000 750000 750000 750000 750000 750000 750000 750000 750000 750000 750000 750000 750000 750000 750000 750000 750000 750000 750000 750000 750000 750000 750000 750000 750000 750000 750000 750000 750000 750000 750000 750000 750000 750000 750000 750000 750000 750000 750000 750000 750000 750000 750000 750000 750000 750000 750000 750000 750000 750000 750000 750000 750000 750000 750000 750000 750000 750000 750000 750000 750000 750000 750000 750000 750000 555012 555023 555034 555046 555059 555073 555089 555108 555130 555159 555226 555159 555130 555108 555089 555073 555059 555046 555034 555023 555012 555002 554993 554984 554975 554967 554959 554952 554944 554937 554930 554924 554917 554911 554905 554899 554893 554887 554882 554876 554871 554866 554861 554856 554851 554846 554842 554837 554833 554828 554824 554819 554815 554811 554807 554803 554799 554795 554791 554788 554784 554780 554777 554773 554769 554766 554763 554759 554756 554753 554749 554746 554743 554740 554737 554734 554731 554728 554725 554722 554719 554716 554713 554710 554707 554705 554702 554699 554697 554694 554691 554689 554686 554684 554681 554679 554676 554674 554671 554669 554667 554664 554662 554660 554657 554655 554653 554651 554648 554646 554644 554642 554640 554638 554636 554634 562500 562500 562500 562500 562500 562500 562500 562500 562500 562500 562500 562500 562500 562500 562500 562500 562500 562500 562500 562500 562500 562500 562500 562500 562500 562500 562500 562500 562500 562500 562500 562500 562500 562500 562500 562500 562500 562500 562500 562500 562500 562500 562500 562500 562500 562500 562500 562500 562500 562500 562500 562500 562500 562500 562500 562500 562500 562500 562500 562500 562500 562500 562500 562500 562500 562500 562500 562500 562500 562500 562500 562500 562500 562500 562500 562500 562500 562500 562500 562500 562500 562500 562500 562500 562500 370008 370015 370023 370031 370039 370049 370059 370072 370086 370106 370151 370106 370086 370072 370059 370049 370039 370031 370023 370015 370008 370001 369995 369989 369983 369978 369973 369968 369963 369958 369954 369949 369945 369941 369937 369933 369929 369925 369921 369918 369914 369911 369907 369904 369901 369898 369894 369891 369888 369885 369882 369880 369877 369874 369871 369869 369866 369863 369861 369858 369856 369853 369851 369849 369846 369844 369842 369839 369837 369835 369833 369831 369829 369826 369824 369822 369820 369818 369816 369814 369812 369811 369809 369807 369805 369803 369801 369800 369798 369796 369794 369793 369791 369789 369787 369786 369784 369783 369781 369779 369778 369776 369775 369773 369772 369770 369769 369767 369766 369764 369763 369761 369760 369758 369757 369756 375000 375000 375000 375000 375000 375000 375000 375000 375000 375000 375000 375000 375000 375000 375000 375000 375000 375000 375000 375000 375000 375000 375000 375000 375000 375000 375000 375000 375000 375000 375000 375000 375000 375000 375000 375000 375000 375000 375000 375000 375000 375000 375000 375000 375000 375000 375000 375000 375000 375000 375000 375000 375000 375000 375000 375000 375000 375000 375000 375000 375000 375000 375000 375000 375000 375000 375000 375000 375000 375000 375000 375000 375000 375000 375000 375000 375000 375000 375000 375000 375000 375000 375000 375000 375000 185004 185008 185011 185015 185020 185024 185030 185036 185043 185053 185075 185053 185043 185036 185030 185024 185020 185015 185011 185008 185004 185001 184998 184995 184992 184989 184986 184984 184981 184979 184977 184975 184972 184970 184968 184966 184964 184962 184961 184959 184957 184955 184954 184952 184950 184949 184947 184946 184944 184943 184941 184940 184938 184937 184936 184934 184933 184932 184930 184929 184928 184927 184926 184924 184923 184922 184921 184920 184919 184918 184916 184915 184914 184913 184912 184911 184910 184909 184908 184907 184906 184905 184904 184903 184902 184902 184901 184900 184899 184898 184897 184896 184895 184895 184894 184893 184892 184891 184890 184890 184889 184888 184887 184887 184886 184885 184884 184884 184883 184882 184881 184881 184880 184879 184879 184878 187500 187500 187500 187500 187500 187500 187500 187500 187500 187500 187500 187500 187500 187500 187500 187500 187500 187500 187500 187500 187500 187500 187500 187500 187500 187500 187500 187500 187500 187500 187500 187500 187500 187500 187500 187500 187500 187500 187500 187500 187500 187500 187500 187500 187500 187500 187500 187500 187500 187500 187500 187500 187500 187500 187500 187500 187500 187500 187500 187500 187500 187500 187500 187500 187500 187500 187500 187500 187500 187500 187500 187500 187500 187500 187500 187500 187500 187500 187500 187500 187500 187500 187500 187500 187500 0 0 0 0 0 0 0 0 0 0 0 0 0 0 0 0 0 0 0 0 0 0 0 0 0 0 0 0 0 0 0 0 0 0 0 0 0 0 0 0 0 0 0 0 0 0 0 0 0 0 0 0 0 0 0 0 0 0 0 0 0 0 0 0 0 0 0 0 0 0 0 0 0 0 0 0 0 0 0 0 0 0 0 0 0 0 0 0 0 0 0 0 0 0 0 0 0 0 0 0 0 0 0 0 0 0 0 0 0 0 0 0 0 0 0 0 0 0 0 0 0 0 0 0 0 0 0 0 0 0 0 0 0 0 0 0 0 0 0 0 0 0 0 0 0 0 0 0 0 0 0 0 0 0 0 0 0 0 0 0 0 0 0 0 0 0 0 0 0 0 0 0 0 0 0 0 0 0 0 0 0 0 0 0 0 0 0 0 0 0 0 0 0 0 0 0 0 0 0 0 0 
</DataArray>
<DataArray Name="Depth wrt reference" format="ascii" type="Float64">
750000 750000 750000 750000 750000 750000 750000 750000 750000 750000 750000 750000 750000 750000 750000 750000 750000 750000 750000 750000 750000 750000 750000 750000 750000 750000 750000 750000 750000 750000 750000 750000 750000 750000 750000 750000 750000 750000 750000 750000 750000 750000 750000 750000 750000 750000 750000 750000 750000 750000 750000 750000 750000 750000 750000 750000 750000 750000 750000 750000 750000 750000 750000 750000 750000 750000 750000 750000 750000 750000 750000 750000 750000 750000 750000 750000 750000 750000 750000 750000 750000 750000 750000 750000 750000 750000 750000 750000 750000 750000 750000 750000 750000 750000 750000 750000 750000 750000 750000 750000 750000 750000 750000 750000 750000 750000 750000 750000 750000 750000 750000 750000 750000 750000 750000 750000 750000 750000 750000 750000 750000 750000 750000 750000 750000 750000 750000 750000 750000 750000 750000 750000 750000 750000 750000 750000 750000 750000 750000 750000 750000 750000 750000 750000 750000 750000 750000 750000 750000 750000 750000 750000 750000 750000 750000 750000 750000 750000 750000 750000 750000 750000 750000 750000 750000 750000 750000 750000 750000 750000 750000 750000 750000 750000 750000 750000 750000 750000 750000 750000 750000 750000 750000 750000 750000 750000 750000 750000 750000 750000 750000 750000 750000 750000 750000 750000 750000 750000 750000 750000 750000 564996 564992 564989 564985 564980 564976 564970 564964 564957 564947 564925 564947 564957 564964 564970 564976 564980 564985 564989 564992 564996 564999 565002 565005 565008 565011 565014 565016 565019 565021 565023 565025 565028 565030 565032 565034 565036 565038 565039 565041 565043 565045 565046 565048 565050 565051 565053 565054 565056 565057 565059 565060 565062 565063 565064 565066 565067 565068 565070 565071 565072 565073 565074 565076 565077 565078 565079 565080 565081 565082 565084 565085 565086 565087 565088 565089 565090 565091 565092 565093 565094 565095 565096 565097 565098 565098 565099 565100 565101 565102 565103 565104 565105 565105 565106 565107 565108 565109 565110 565110 565111 565112 565113 565113 565114 565115 565116 565116 565117 565118 565119 565119 565120 565121 565121 565122 562500 562500 562500 562500 562500 562500 562500 562500 562500 562500 562500 562500 562500 562500 562500 562500 562500 562500 562500 562500 562500 562500 562500 562500 562500 562500 562500 562500 562500 562500 562500 562500 562500 562500 562500 562500 562500 562500 562500 562500 562500 562500 562500 562500 562500 562500 562500 562500 562500 562500 562500 562500 562500 562500 562500 562500 562500 562500 562500 562500 562500 562500 562500 562500 562500 562500 562500 562500 562500 562500 562500 562500 562500 562500 562500 562500 562500 562500 562500 562500 562500 562500 562500 562500 562500 379992 379985 379977 379969 379961 379951 379941 379928 379914 379894 379849 379894 379914 379928 379941 379951 379961 379969 379977 379985 379992 379999 380005 380011 380017 380022 380027 380032 380037 380042 380046 380051 380055 380059 380063 380067 380071 380075 380079 380082 380086 380089 380093 380096 380099 380102 380106 380109 380112 380115 380118 380120 380123 380126 380129 380131 380134 380137 380139 380142 380144 380147 380149 380151 380154 380156 380158 380161 380163 380165 380167 380169 380171 380174 380176 380178 380180 380182 380184 380186 380188 380189 380191 380193 380195 380197 380199 380200 380202 380204 380206 380207 380209 380211 380213 380214 380216 380217 380219 380221 380222 380224 380225 380227 380228 380230 380231 380233 380234 380236 380237 380239 380240 380242 380243 380244 375000 375000 375000 375000 375000 375000 375000 375000 375000 375000 375000 375000 375000 375000 375000 375000 375000 375000 375000 375000 375000 375000 375000 375000 375000 375000 375000 375000 375000 375000 375000 375000 375000 375000 375000 375000 375000 375000 375000 375000 375000 375000 375000 375000 375000 375000 375000 375000 375000 375000 375000 375000 375000 375000 375000 375000 375000 375000 375000 375000 375000 375000 375000 375000 375000 375000 375000 375000 375000 375000 375000 375000 375000 375000 375000 375000 375000 375000 375000 375000 375000 375000 375000 375000 375000 194988 194977 194966 194954 194941 194927 194911 194892 194870 194841 194774 194841 194870 194892 194911 194927 194941 194954 194966 194977 194988 194998 195007 195016 195025 195033 195041 195048 195056 195063 195070 195076 195083 195089 195095 195101 195107 195113 195118 195124 195129 195134 195139 195144 195149 195154 195158 195163 195167 195172 195176 195181 195185 195189 195193 195197 195201 195205 195209 195212 195216 195220 195223 195227 195231 195234 195237 195241 195244 195247 195251 195254 195257 195260 195263 195266 195269 195272 195275 195278 195281 195284 195287 195290 195293 195295 195298 195301 195303 195306 195309 195311 195314 195316 195319 195321 195324 195326 195329 195331 195333 195336 195338 195340 195343 195345 195347 195349 195352 195354 195356 195358 195360 195362 195364 195366 187500 187500 187500 187500 187500 187500 187500 187500 187500 187500 187500 187500 187500 187500 187500 187500 187500 187500 187500 187500 187500 187500 187500 187500 187500 187500 187500 187500 187500 187500 187500 187500 187500 187500 187500 187500 187500 187500 187500 187500 187500 187500 187500 187500 187500 187500 187500 187500 187500 187500 187500 187500 187500 187500 187500 187500 187500 187500 187500 187500 187500 187500 187500 187500 187500 187500 187500 187500 187500 187500 187500 187500 187500 187500 187500 187500 187500 187500 187500 187500 187500 187500 187500 187500 187500 9983.89 9969.88 9954.95 9938.92 9921.54 9902.45 9881.12 9856.63 9827.19 9788.19 9698.57 9788.19 9827.19 9856.63 9881.12 9902.45 9921.54 9938.92 9954.95 9969.88 9983.89 9997.12 10009.7 10021.6 10033 10044 10054.5 10064.6 10074.4 10083.8 10093 10101.8 10110.4 10118.8 10127 10134.9 10142.6 10150.2 10157.6 10164.8 10171.8 10178.7 10185.5 10192.1 10198.6 10204.9 10211.2 10217.3 10223.3 10229.2 10235 10240.7 10246.3 10251.9 10257.3 10262.6 10267.9 10273.1 10278.2 10283.2 10288.2 10293.1 10297.9 10302.7 10307.4 10312 10316.6 10321.1 10325.6 10330 10334.3 10338.6 10342.8 10347 10351.2 10355.2 10359.3 10363.3 10367.2 10371.1 10375 10378.8 10382.6 10386.4 10390.1 10393.7 10397.3 10400.9 10404.5 10408 10411.5 10414.9 10418.3 10421.7 10425 10428.3 10431.6 10434.9 10438.1 10441.3 10444.4 10447.6 10450.7 10453.7 10456.8 10459.8 10462.8 10465.7 10468.7 10471.6 10474.5 10477.3 10480.2 10483 10485.8 10488.6 0 0 0 0 0 0 0 0 0 0 0 0 0 0 0 0 0 0 0 0 0 0 0 0 0 0 0 0 0 0 0 0 0 0 0 0 0 0 0 0 0 0 0 0 0 0 0 0 0 0 0 0 0 0 0 0 0 0 0 0 0 0 0 0 0 0 0 0 0 0 0 0 0 0 0 0 0 0 0 0 0 0 0 0 0 
</DataArray>
<DataArray Name="Topography" format="ascii" type="Float64">
-9983.89 -9969.88 -9954.95 -9938.92 -9921.54 -9902.45 -9881.12 -9856.63 -9827.19 -9788.19 -9698.57 -9788.19 -9827.19 -9856.63 -9881.12 -9902.45 -9921.54 -9938.92 -9954.95 -9969.88 -9983.89 -9997.12 -10009.7 -10021.6 -10033 -10044 -10054.5 -10064.6 -10074.4 -10083.8 -10093 -10101.8 -10110.4 -10118.8 -10127 -10134.9 -10142.6 -10150.2 -10157.6 -10164.8 -10171.8 -10178.7 -10185.5 -10192.1 -10198.6 -10204.9 -10211.2 -10217.3 -10223.3 -10229.2 -10235 -10240.7 -10246.3 -10251.9 -10257.3 -10262.6 -10267.9 -10273.1 -10278.2 -10283.2 -10288.2 -10293.1 -10297.9 -10302.7 -10307.4 -10312 -10316.6 -10321.1 -10325.6 -10330 -10334.3 -10338.6 -10342.8 -10347 -10351.2 -10355.2 -10359.3 -10363.3 -10367.2 -10371.1 -10375 -10378.8 -10382.6 -10386.4 -10390.1 -10393.7 -10397.3 -10400.9 -10404.5 -10408 -10411.5 -10414.9 -10418.3 -10421.7 -10425 -10428.3 -10431.6 -10434.9 -10438.1 -10441.3 -10444.4 -10447.6 -10450.7 -10453.7 -10456.8 -10459.8 -10462.8 -10465.7 -10468.7 -10471.6 -10474.5 -10477.3 -10480.2 -10483 -10485.8 -10488.6 0 0 0 0 0 0 0 0 0 0 0 0 0 0 0 0 0 0 0 0 0 0 0 0 0 0 0 0 0 0 0 0 0 0 0 0 0 0 0 0 0 0 0 0 0 0 0 0 0 0 0 0 0 0 0 0 0 0 0 0 0 0 0 0 0 0 0 0 0 0 0 0 0 0 0 0 0 0 0 0 0 0 0 0 0 -9983.89 -9969.88 -9954.95 -9938.92 -9921.54 -9902.45 -9881.12 -9856.63 -9827.19 -9788.19 -9698.57 -9788.19 -9827.19 -9856.63 -9881.12 -9902.45 -9921.54 -9938.92 -9954.95 -9969.88 -9983.89 -9997.12 -10009.7 -10021.6 -10033 -10044 -10054.5 -10064.6 -10074.4 -10083.8 -10093 -10101.8 -10110.4 -10118.8 -10127 -10134.9 -10142.6 -10150.2 -10157.6 -10164.8 -10171.8 -10178.7 -10185.5 -10192.1 -10198.6 -10204.9 -10211.2 -10217.3 -10223.3 -10229.2 -10235 -10240.7 -10246.3 -10251.9 -10257.3 -10262.6 -10267.9 -10273.1 -10278.2 -10283.2 -10288.2 -10293.1 -10297.9 -10302.7 -10307.4 -10312 -10316.6 -10321.1 -10325.6 -10330 -10334.3 -10338.6 -10342.8 -10347 -10351.2 -10355.2 -10359.3 -10363.3 -10367.2 -10371.1 -10375 -10378.8 -10382.6 -10386.4 -10390.1 -10393.7 -10397.3 -10400.9 -10404.5 -10408 -10411.5 -10414.9 -10418.3 -10421.7 -10425 -10428.3 -10431.6 -10434.9 -10438.1 -10441.3 -10444.4 -10447.6 -10450.7 -10453.7 -10456.8 -10459.8 -10462.8 -10465.7 -10468.7 -10471.6 -10474.5 -10477.3 -10480.2 -10483 -10485.8 -10488.6 0 0 0 0 0 0 0 0 0 0 0 0 0 0 0 0 0 0 0 0 0 0 0 0 0 0 0 0 0 0 0 0 0 0 0 0 0 0 0 0 0 0 0 0 0 0 0 0 0 0 0 0 0 0 0 0 0 0 0 0 0 0 0 0 0 0 0 0 0 0 0 0 0 0 0 0 0 0 0 0 0 0 0 0 0 -9983.89 -9969.88 -9954.95 -9938.92 -9921.54 -9902.45 -9881.12 -9856.63 -9827.19 -9788.19 -9698.57 -9788.19 -9827.19 -9856.63 -9881.12 -9902.45 -9921.54 -9938.92 -9954.95 -9969.88 -9983.89 -9997.12 -10009.7 -10021.6 -10033 -10044 -10054.5 -10064.6 -10074.4 -10083.8 -10093 -10101.8 -10110.4 -10118.8 -10127 -10134.9 -10142.6 -10150.2 -10157.6 -10164.8 -10171.8 -10178.7 -10185.5 -10192.1 -10198.6 -10204.9 -10211.2 -10217.3 -10223.3 -10229.2 -10235 -10240.7 -10246.3 -10251.9 -10257.3 -10262.6 -10267.9 -10273.1 -10278.2 -10283.2 -10288.2 -10293.1 -10297.9 -10302.7 -10307.4 -10312 -10316.6 -10321.1 -10325.6 -10330 -10334.3 -10338.6 -10342.8 -10347 -10351.2 -10355.2 -10359.3 -10363.3 -10367.2 -10371.1 -10375 -10378.8 -10382.6 -10386.4 -10390.1 -10393.7 -10397.3 -10400.9 -10404.5 -10408 -10411.5 -10414.9 -10418.3 -10421.7 -10425 -10428.3 -10431.6 -10434.9 -10438.1 -10441.3 -10444.4 -10447.6 -10450.7 -10453.7 -10456.8 -10459.8 -10462.8 -10465.7 -10468.7 -10471.6 -10474.5 -10477.3 -10480.2 -10483 -10485.8 -10488.6 0 0 0 0 0 0 0 0 0 0 0 0 0 0 0 0 0 0 0 0 0 0 0 0 0 0 0 0 0 0 0 0 0 0 0 0 0 0 0 0 0 0 0 0 0 0 0 0 0 0 0 0 0 0 0 0 0 0 0 0 0 0 0 0 0 0 0 0 0 0 0 0 0 0 0 0 0 0 0 0 0 0 0 0 0 -9983.89 -9969.88 -9954.95 -9938.92 -9921.54 -9902.45 -9881.12 -9856.63 -9827.19 -9788.19 -9698.57 -9788.19 -9827.19 -9856.63 -9881.12 -9902.45 -9921.54 -9938.92 -9954.95 -9969.88 -9983.89 -9997.12 -10009.7 -10021.6 -10033 -10044 -10054.5 -10064.6 -10074.4 -10083.8 -10093 -10101.8 -10110.4 -10118.8 -10127 -10134.9 -10142.6 -10150.2 -10157.6 -10164.8 -10171.8 -10178.7 -10185.5 -10192.1 -10198.6 -10204.9 -10211.2 -10217.3 -10223.3 -10229.2 -10235 -10240.7 -10246.3 -10251.9 -10257.3 -10262.6 -10267.9 -10273.1 -10278.2 -10283.2 -10288.2 -10293.1 -10297.9 -10302.7 -10307.4 -10312 -10316.6 -10321.1 -10325.6 -10330 -10334.3 -10338.6 -10342.8 -10347 -10351.2 -10355.2 -10359.3 -10363.3 -10367.2 -10371.1 -10375 -10378.8 -10382.6 -10386.4 -10390.1 -10393.7 -10397.3 -10400.9 -10404.5 -10408 -10411.5 -10414.9 -10418.3 -10421.7 -10425 -10428.3 -10431.6 -10434.9 -10438.1 -10441.3 -10444.4 -10447.6 -10450.7 -10453.7 -10456.8 -10459.8 -10462.8 -10465.7 -10468.7 -10471.6 -10474.5 -10477.3 -10480.2 -10483 -10485.8 -10488.6 0 0 0 0 0 0 0 0 0 0 0 0 0 0 0 0 0 0 0 0 0 0 0 0 0 0 0 0 0 0 0 0 0 0 0 0 0 0 0 0 0 0 0 0 0 0 0 0 0 0 0 0 0 0 0 0 0 0 0 0 0 0 0 0 0 0 0 0 0 0 0 0 0 0 0 0 0 0 0 0 0 0 0 0 0 -9983.89 -9969.88 -9954.95 -9938.92 -9921.54 -9902.45 -9881.12 -9856.63 -9827.19 -9788.19 -9698.57 -9788.19 -9827.19 -9856.63 -9881.12 -9902.45 -9921.54 -9938.92 -9954.95 -9969.88 -9983.89 -9997.12 -10009.7 -10021.6 -10033 -10044 -10054.5 -10064.6 -10074.4 -10083.8 -10093 -10101.8 -10110.4 -10118.8 -10127 -10134.9 -10142.6 -10150.2 -10157.6 -10164.8 -10171.8 -10178.7 -10185.5 -10192.1 -10198.6 -10204.9 -10211.2 -10217.3 -10223.3 -10229.2 -10235 -10240.7 -10246.3 -10251.9 -10257.3 -10262.6 -10267.9 -10273.1 -10278.2 -10283.2 -10288.2 -10293.1 -10297.9 -10302.7 -10307.4 -10312 -10316.6 -10321.1 -10325.6 -10330 -10334.3 -10338.6 -10342.8 -10347 -10351.2 -10355.2 -10359.3 -10363.3 -10367.2 -10371.1 -10375 -10378.8 -10382.6 -10386.4 -10390.1 -10393.7 -10397.3 -10400.9 -10404.5 -10408 -10411.5 -10414.9 -10418.3 -10421.7 -10425 -10428.3 -10431.6 -10434.9 -10438.1 -10441.3 -10444.4 -10447.6 -10450.7 -10453.7 -10456.8 -10459.8 -10462.8 -10465.7 -10468.7 -10471.6 -10474.5 -10477.3 -10480.2 -10483 -10485.8 -10488.6 0 0 0 0 0 0 0 0 0 0 0 0 0 0 0 0 0 0 0 0 0 0 0 0 0 0 0 0 0 0 0 0 0 0 0 0 0 0 0 0 0 0 0 0 0 0 0 0 0 0 0 0 0 0 0 0 0 0 0 0 0 0 0 0 0 0 0 0 0 0 0 0 0 0 0 0 0 0 0 0 0 0 0 0 0 
</DataArray>
<DataArray Name="Temperature" format="ascii" type="Float64">
1848.81 1848.81 1848.82 1848.82 1848.83 1848.84 1848.84 1848.85 1848.86 1848.88 1848.91 1848.88 1848.86 1848.85 1848.84 1848.84 1848.83 1848.82 1848.82 1848.81 1848.81 1848.8 1848.8 1848.79 1848.79 1848.78 1848.78 1848.78 1848.77 1848.77 1848.77 1848.76 1848.76 1848.76 1848.75 1848.75 1848.75 1848.75 1848.74 1848.74 1848.74 1848.74 1848.73 1848.73 1848.73 1848.73 1848.72 1848.72 1848.72 1848.72 1848.72 1848.71 1848.71 1848.71 1848.71 1848.71 1848.7 1848.7 1848.7 1848.7 1848.7 1848.69 1848.69 1848.69 1848.69 1848.69 1848.69 1848.68 1848.68 1848.68 1848.68 1848.68 1848.68 1848.68 1848.67 1848.67 1848.67 1848.67 1848.67 1848.67 1848.66 1848.66 1848.66 1848.66 1848.66 1848.66 1848.66 1848.66 1848.65 1848.65 1848.65 1848.65 1848.65 1848.65 1848.65 1848.65 1848.64 1848.64 1848.64 1848.64 1848.64 1848.64 1848.64 1848.64 1848.64 1848.63 1848.63 1848.63 1848.63 1848.63 1848.63 1848.63 1848.63 1848.63 1848.63 1848.62 1852.4 1852.4 1852.4 1852.4 1852.4 1852.4 1852.4 1852.4 1852.4 1852.4 1852.4 1852.4 1852.4 1852.4 1852.4 1852.4 1852.4 1852.4 1852.4 1852.4 1852.4 1852.4 1852.4 1852.4 1852.4 1852.4 1852.4 1852.4 1852.4 1852.4 1852.4 1852.4 1852.4 1852.4 1852.4 1852.4 1852.4 1852.4 1852.4 1852.4 1852.4 1852.4 1852.4 1852.4 1852.4 1852.4 1852.4 1852.4 1852.4 1852.4 1852.4 1852.4 1852.4 1852.4 1852.4 1852.4 1852.4 1852.4 1852.4 1852.4 1852.4 1852.4 1852.4 1852.4 1852.4 1852.4 1852.4 1852.4 1852.4 1852.4 1852.4 1852.4 1852.4 1852.4 1852.4 1852.4 1852.4 1852.4 1852.4 1852.4 1852.4 1852.4 1852.4 1852.4 1852.4 1779.12 1779.12 1779.13 1779.13 1779.14 1779.14 1779.15 1779.16 1779.17 1779.18 1779.2 1779.18 1779.17 1779.16 1779.15 1779.14 1779.14 1779.13 1779.13 1779.12 1779.12 1779.12 1779.11 1779.11 1779.11 1779.1 1779.1 1779.1 1779.09 1779.09 1779.09 1779.09 1779.08 1779.08 1779.08 1779.08 1779.07 1779.07 1779.07 1779.07 1779.06 1779.06 1779.06 1779.06 1779.06 1779.06 1779.05 1779.05 1779.05 1779.05 1779.05 1779.04 1779.04 1779.04 1779.04 1779.04 1779.04 1779.04 1779.03 1779.03 1779.03 1779.03 1779.03 1779.03 1779.03 1779.02 1779.02 1779.02 1779.02 1779.02 1779.02 1779.02 1779.01 1779.01 1779.01 1779.01 1779.01 1779.01 1779.01 1779.01 1779.01 1779 1779 1779 1779 1779 1779 1779 1779 1779 1778.99 1778.99 1778.99 1778.99 1778.99 1778.99 1778.99 1778.99 1778.99 1778.99 1778.99 1778.98 1778.98 1778.98 1778.98 1778.98 1778.98 1778.98 1778.98 1778.98 1778.98 1778.98 1778.97 1778.97 1778.97 1778.97 1782.04 1782.04 1782.04 1782.04 1782.04 1782.04 1782.04 1782.04 1782.04 1782.04 1782.04 1782.04 1782.04 1782.04 1782.04 1782.04 1782.04 1782.04 1782.04 1782.04 1782.04 1782.04 1782.04 1782.04 1782.04 1782.04 1782.04 1782.04 1782.04 1782.04 1782.04 1782.04 1782.04 1782.04 1782.04 1782.04 1782.04 1782.04 1782.04 1782.04 1782.04 1782.04 1782.04 1782.04 1782.04 1782.04 1782.04 1782.04 1782.04 1782.04 1782.04 1782.04 1782.04 1782.04 1782.04 1782.04 1782.04 1782.04 1782.04 1782.04 1782.04 1782.04 1782.04 1782.04 1782.04 1782.04 1782.04 1782.04 1782.04 1782.04 1782.04 1782.04 1782.04 1782.04 1782.04 1782.04 1782.04 1782.04 1782.04 1782.04 1782.04 1782.04 1782.04 1782.04 1782.04 1707.08 1707.09 1707.09 1707.09 1707.09 1707.1 1707.1 1707.11 1707.11 1707.12 1707.14 1707.12 1707.11 1707.11 1707.1 1707.1 1707.09 1707.09 1707.09 1707.09 1707.08 1707.08 1707.08 1707.08 1707.07 1707.07 1707.07 1707.07 1707.07 1707.06 1707.06 1707.06 1707.06 1707.06 1707.05 1707.05 1707.05 1707.05 1707.05 1707.05 1707.05 1707.04 1707.04 1707.04 1707.04 1707.04 1707.04 1707.04 1707.04 1707.04 1707.03 1707.03 1707.03 1707.03 1707.03 1707.03 1707.03 1707.03 1707.03 1707.02 1707.02 1707.02 1707.02 1707.02 1707.02 1707.02 1707.02 1707.02 1707.02 1707.02 1707.01 1707.01 1707.01 1707.01 1707.01 1707.01 1707.01 1707.01 1707.01 1707.01 1707.01 1707.01 1707.01 1707 1707 1707 1707 1707 1707 1707 1707 1707 1707 1707 1707 1707 1707 1706.99 1706.99 1706.99 1706.99 1706.99 1706.99 1706.99 1706.99 1706.99 1706.99 1706.99 1706.99 1706.99 1706.99 1706.99 1706.99 1706.99 1706.99 1706.98 1709.03 1709.03 1709.03 1709.03 1709.03 1709.03 1709.03 1709.03 1709.03 1709.03 1709.03 1709.03 1709.03 1709.03 1709.03 1709.03 1709.03 1709.03 1709.03 1709.03 1709.03 1709.03 1709.03 1709.03 1709.03 1709.03 1709.03 1709.03 1709.03 1709.03 1709.03 1709.03 1709.03 1709.03 1709.03 1709.03 1709.03 1709.03 1709.03 1709.03 1709.03 1590.25 1567.33 1547.81 1531.69 1518.87 1509.27 1502.75 1499.19 1498.47 1499.82 1501.25 1502.67 1504.09 1505.49 1506.88 1508.26 1509.62 1510.97 1512.31 1709.03 1709.03 1709.03 1709.03 1709.03 1709.03 1709.03 1709.03 1709.03 1709.03 1709.03 1709.03 1709.03 1709.03 1709.03 1709.03 1709.03 1709.03 1709.03 1709.03 1709.03 1709.03 1709.03 1709.03 1709.03 1635.05 1635.05 1635.05 1635.05 1635.05 1635.05 1635.06 1635.06 1635.06 1635.06 1635.07 1635.06 1635.06 1635.06 1635.06 1635.05 1635.05 1635.05 1635.05 1635.05 1635.05 1635.04 1635.04 1635.04 1635.04 1635.04 1635.04 1635.04 1635.04 1635.04 1635.04 1635.03 1635.03 1635.03 1635.03 1635.03 1635.03 1635.03 1635.03 1635.03 1635.03 1635.03 1635.03 1635.03 1635.02 1635.02 1635.02 1635.02 1635.02 1635.02 1635.02 1635.02 1635.02 1635.02 1635.02 1635.02 1635.02 1635.02 1635.02 1635.02 1635.02 1635.02 1635.02 1635.01 1635.01 1635.01 1635.01 1635.01 1635.01 1635.01 1635.01 1635.01 1635.01 1635.01 1635.01 1635.01 1635.01 1635.01 1635.01 1635.01 1635.01 1635.01 1635.01 1635.01 1635.01 1635.01 1635.01 1635.01 1635 1635 1635 1635 1635 1635 1635 1635 1635 1635 1635 1635 1635 1635 1635 1635 1635 1635 1635 1635 1635 1635 1635 1635 1635 1635 1635 1635 1636.02 1636.02 1636.02 1636.02 1636.02 1636.02 1636.02 1636.02 1636.02 1636.02 1636.02 1636.02 1636.02 1636.02 1636.02 1586.76 1490.88 1397.47 1309.1 1229.48 1163.51 1116.96 1095.63 1104.21 1145.06 1217.26 1316.3 1434.45 1561.84 1636.02 1636.02 1636.02 1636.02 1636.02 1636.02 1636.02 1636.02 1636.02 1636.02 1636.02 1636.02 1636.02 1636.02 1636.02 1636.02 1636.02 1636.02 1636.02 1636.02 1636.02 1636.02 1636.02 1636.02 1636.02 1636.02 1636.02 1636.02 1636.02 1636.02 1636.02 1636.02 1636.02 1636.02 1636.02 1636.02 1636.02 1636.02 1636.02 1636.02 1636.02 1636.02 1636.02 1636.02 1636.02 1636.02 1636.02 1636.02 1636.02 1636.02 1636.02 1636.02 1636.02 1636.02 1636.02 1636.02 293.15 293.15 293.15 293.15 293.15 293.15 293.15 293.15 293.15 293.15 293.15 293.15 293.15 293.15 293.15 293.15 293.15 293.15 293.15 293.15 293.15 293.15 293.15 293.15 293.15 293.15 293.15 293.15 293.15 293.15 293.15 293.15 293.15 293.15 293.15 293.15 293.15 293.15 293.15 293.15 293.15 293.15 293.15 293.15 293.15 293.15 293.15 293.15 293.15 293.15 293.15 293.15 293.15 293.15 293.15 293.15 293.15 293.15 293.15 293.15 293.15 293.15 293.15 293.15 293.15 293.15 293.15 293.15 293.15 293.15 293.15 293.15 293.15 293.15 293.15 293.15 293.15 293.15 293.15 293.15 293.15 293.15 293.15 293.15 293.15 293.15 293.15 293.15 293.15 293.15 293.15 293.15 293.15 293.15 293.15 293.15 293.15 293.15 293.15 293.15 293.15 293.15 293.15 293.15 293.15 293.15 293.15 293.15 293.15 293.15 293.15 293.15 293.15 293.15 293.15 1600 293.15 293.15 293.15 293.15 293.15 293.15 293.15 293.15 293.15 293.15 293.15 293.15 293.15 293.15 293.15 293.15 293.15 293.15 293.15 293.15 293.15 293.15 293.15 293.15 293.15 293.15 293.15 293.15 293.15 293.15 293.15 293.15 293.15 293.15 293.15 293.15 293.15 293.15 293.15 293.15 293.15 293.15 293.15 293.15 293.15 293.15 293.15 293.15 293.15 293.15 293.15 293.15 293.15 293.15 293.15 293.15 293.15 293.15 293.15 293.15 293.15 293.15 293.15 293.15 293.15 293.15 293.15 293.15 293.15 293.15 293.15 293.15 293.15 293.15 293.15 293.15 293.15 293.15 293.15 293.15 293.15 293.15 293.15 293.15 293.15 
</DataArray>
<DataArray Name="velocity" NumberOfComponents="3" format="ascii" type="Float64">