<?xml version="1.0"?>
<VTKFile byte_order="LittleEndian" type="UnstructuredGrid" version="0.1">
<UnstructuredGrid>
<Piece NumberOfCells="3000" NumberOfPoints="3216">
<PointData>
<DataArray Name="Depth wrt surface" format="ascii" type="Float64">
739843 739851 739860 739869 739879 739889 739901 739914 739930 739950 740000 739950 739930 739914 739901 739889 739879 739869 739860 739851 739843 739836 739828 739821 739814 739808 739802 739796 739790 739784 739778 739773 739767 739762 739757 739752 739747 739742 739738 739733 739728 739724 739719 739715 739711 739707 739702 739698 739694 739690 739686 739682 739679 739675 739671 739667 739664 739660 739656 739653 739649 739646 739642 739639 739636 739632 739629 739626 739622 739619 739616 739613 739610 739606 739603 739600 739597 739594 739591 739588 739585 739582 739579 739576 739573 739571 739568 739565 739562 739559 739556 739554 739551 739548 739545 739543 739540 739537 739535 739532 739530 739527 739524 739522 739519 739517 739514 739512 739509 739507 739504 739502 739499 739497 739494 739492 750000 750000 750000 750000 750000 750000 750000 750000 750000 750000 750000 750000 750000 750000 750000 750000 750000 750000 750000 750000 750000 750000 750000 750000 750000 750000 750000 750000 750000 750000 750000 750000 750000 750000 750000 750000 750000 750000 750000 750000 750000 750000 750000 750000 750000 750000 750000 750000 750000 750000 750000 750000 750000 750000 750000 750000 750000 750000 750000 750000 750000 750000 750000 750000 750000 750000 750000 750000 750000 750000 750000 750000 750000 750000 750000 750000 750000 750000 750000 750000 750000 750000 750000 750000 750000 690520 690528 690536 690544 690553 690563 690574 690586 690601 690620 690667 690620 690601 690586 690574 690563 690553 690544 690536 690528 690520 690513 690506 690500 690493 690487 690482 690476 690470 690465 690460 690455 690450 690445 690440 690435 690431 690426 690422 690417 690413 690409 690405 690401 690397 690393 690389 690385 690381 690378 690374 690370 690367 690363 690360 690356 690353 690349 690346 690343 690339 690336 690333 690330 690327 690323 690320 690317 690314 690311 690308 690305 690302 690299 690296 690294 690291 690288 690285 690282 690279 690277 690274 690271 690269 690266 690263 690261 690258 690255 690253 690250 690248 690245 690242 690240 690237 690235 690232 690230 690228 690225 690223 690220 690218 690216 690213 690211 690208 690206 690204 690202 690199 690197 690195 690192 700000 700000 700000 700000 700000 700000 700000 700000 700000 700000 700000 700000 700000 700000 700000 700000 700000 700000 700000 700000 700000 700000 700000 700000 700000 700000 700000 700000 700000 700000 700000 700000 700000 700000 700000 700000 700000 700000 700000 700000 700000 700000 700000 700000 700000 700000 700000 700000 700000 700000 700000 700000 700000 700000 700000 700000 700000 700000 700000 700000 700000 700000 700000 700000 700000 700000 700000 700000 700000 700000 700000 700000 700000 700000 700000 700000 700000 700000 700000 700000 700000 700000 700000 700000 700000 641197 641204 641212 641220 641228 641237 641247 641259 641273 641290 641333 641290 641273 641259 641247 641237 641228 641220 641212 641204 641197 641191 641184 641178 641173 641167 641161 641156 641151 641146 641141 641136 641132 641127 641123 641118 641114 641110 641106 641102 641098 641094 641090 641086 641083 641079 641075 641072 641068 641065 641062 641058 641055 641052 641048 641045 641042 641039 641036 641032 641029 641026 641023 641020 641018 641015 641012 641009 641006 641003 641000 640998 640995 640992 640990 640987 640984 640982 640979 640976 640974 640971 640969 640966 640964 640961 640959 640956 640954 640951 640949 640947 640944 640942 640939 640937 640935 640932 640930 640928 640926 640923 640921 640919 640917 640914 640912 640910 640908 640906 640904 640901 640899 640897 640895 640893 650000 650000 650000 650000 650000 650000 650000 650000 650000 650000 650000 650000 650000 650000 650000 650000 650000 650000 650000 650000 650000 650000 650000 650000 650000 650000 650000 650000 650000 650000 650000 650000 650000 650000 650000 650000 650000 650000 650000 650000 650000 650000 650000 650000 650000 650000 650000 650000 650000 650000 650000 650000 650000 650000 650000 650000 650000 650000 650000 650000 650000 650000 650000 650000 650000 650000 650000 650000 650000 650000 650000 650000 650000 650000 650000 650000 650000 650000 650000 650000 650000 650000 650000 650000 650000 591875 591881 591888 591895 591903 591911 591921 591931 591944 591960 592000 591960 591944 591931 591921 591911 591903 591895 591888 591881 591875 591868 591863 591857 591852 591846 591841 591836 591832 591827 591823 591818 591814 591810 591806 591802 591798 591794 591790 591786 591783 591779 591776 591772 591769 591765 591762 591759 591755 591752 591749 591746 591743 591740 591737 591734 591731 591728 591725 591722 591719 591717 591714 591711 591708 591706 591703 591700 591698 591695 591693 591690 591688 591685 591683 591680 591678 591675 591673 591670 591668 591666 591663 591661 591659 591656 591654 591652 591650 591647 591645 591643 591641 591639 591636 591634 591632 591630 591628 591626 591624 591622 591619 591617 591615 591613 591611 591609 591607 591605 591603 591601 591599 591597 591595 591593 600000 600000 600000 600000 600000 600000 600000 600000 600000 600000 600000 600000 600000 600000 600000 600000 600000 600000 600000 600000 600000 600000 600000 600000 600000 600000 600000 600000 600000 600000 600000 600000 600000 600000 600000 600000 600000 600000 600000 600000 600000 600000 600000 600000 600000 600000 600000 600000 600000 600000 600000 600000 600000 600000 600000 600000 600000 600000 600000 600000 600000 600000 600000 600000 600000 600000 600000 600000 600000 600000 600000 600000 600000 600000 600000 600000 600000 600000 600000 600000 600000 600000 600000 600000 600000 542552 542558 542564 542570 542578 542585 542594 542604 542615 542630 542667 542630 542615 542604 542594 542585 542578 542570 542564 542558 542552 542546 542541 542536 542531 542526 542521 542517 542512 542508 542504 542500 542496 542492 542489 542485 542481 542478 542474 542471 542467 542464 542461 542458 542455 542452 542448 542445 542442 542440 542437 542434 542431 542428 542425 542423 542420 542417 542415 542412 542410 542407 542404 542402 542399 542397 542395 542392 542390 542387 542385 542383 542380 542378 542376 542373 542371 542369 542367 542365 542362 542360 542358 542356 542354 542352 542350 542348 542345 542343 542341 542339 542337 542335 542333 542331 542329 542327 542326 542324 542322 542320 542318 542316 542314 542312 542310 542308 542307 542305 542303 542301 542299 542298 542296 542294 550000 550000 550000 550000 550000 550000 550000 550000 550000 550000 550000 550000 550000 550000 550000 550000 550000 550000 550000 550000 550000 550000 550000 550000 550000 550000 550000 550000 550000 550000 550000 550000 550000 550000 550000 550000 550000 550000 550000 550000 550000 550000 550000 550000 550000 550000 550000 550000 550000 550000 550000 550000 550000 550000 550000 550000 550000 550000 550000 550000 550000 550000 550000 550000 550000 550000 550000 550000 550000 550000 550000 550000 550000 550000 550000 550000 550000 550000 550000 550000 550000 550000 550000 550000 550000 493229 493234 493240 493246 493252 493259 493267 493276 493287 493300 493333 493300 493287 493276 493267 493259 493252 493246 493240 493234 493229 493224 493219 493214 493210 493205 493201 493197 493193 493189 493185 493182 493178 493175 493171 493168 493165 493162 493158 493155 493152 493149 493146 493143 493141 493138 493135 493132 493130 493127 493124 493122 493119 493117 493114 493112 493109 493107 493104 493102 493100 493097 493095 493093 493090 493088 493086 493084 493082 493079 493077 493075 493073 493071 493069 493067 493065 493063 493061 493059 493057 493055 493053 493051 493049 493047 493045 493043 493041 493039 493038 493036 493034 493032 493030 493029 493027 493025 493023 493021 493020 493018 493016 493015 493013 493011 493009 493008 493006 493004 493003 493001 492999 492998 492996 492995 500000 500000 500000 500000 500000 500000 500000 500000 500000 500000 500000 500000 500000 500000 500000 500000 500000 500000 500000 500000 500000 500000 500000 500000 500000 500000 500000 500000 500000 500000 500000 500000 500000 500000 500000 500000 500000 500000 500000 500000 500000 500000 500000 500000 500000 500000 500000 500000 500000 500000 500000 500000 500000 500000 500000 500000 500000 500000 500000 500000 500000 500000 500000 500000 500000 500000 500000 500000 500000 500000 500000 500000 500000 500000 500000 500000 500000 500000 500000 500000 500000 500000 500000 500000 500000 443906 443911 443916 443921 443927 443933 443940 443948 443958 443970 444000 443970 443958 443948 443940 443933 443927 443921 443916 443911 443906 443901 443897 443893 443889 443885 443881 443877 443874 443870 443867 443864 443860 443857 443854 443851 443848 443845 443843 443840 443837 443834 443832 443829 443827 443824 443821 443819 443817 443814 443812 443809 443807 443805 443803 443800 443798 443796 443794 443792 443790 443788 443785 443783 443781 443779 443777 443775 443773 443771 443770 443768 443766 443764 443762 443760 443758 443756 443755 443753 443751 443749 443748 443746 443744 443742 443741 443739 443737 443736 443734 443732 443731 443729 443727 443726 443724 443722 443721 443719 443718 443716 443715 443713 443712 443710 443708 443707 443705 443704 443702 443701 443699 443698 443697 443695 450000 450000 450000 450000 450000 450000 450000 450000 450000 450000 450000 450000 450000 450000 450000 450000 450000 450000 450000 450000 450000 450000 450000 450000 450000 450000 450000 450000 450000 450000 450000 450000 450000 450000 450000 450000 450000 450000 450000 450000 450000 450000 450000 450000 450000 450000 450000 450000 450000 450000 450000 450000 450000 450000 450000 450000 450000 450000 450000 450000 450000 450000 450000 450000 450000 450000 450000 450000 450000 450000 450000 450000 450000 450000 450000 450000 450000 450000 450000 450000 450000 450000 450000 450000 450000 394583 394587 394592 394597 394602 394608 394614 394621 394629 394640 394667 394640 394629 394621 394614 394608 394602 394597 394592 394587 394583 394579 394575 394571 394568 394564 394561 394558 394554 394551 394548 394545 394543 394540 394537 394534 394532 394529 394527 394524 394522 394519 394517 394515 394512 394510 394508 394506 394504 394501 394499 394497 394495 394493 394491 394489 394487 394485 394483 394482 394480 394478 394476 394474 394472 394471 394469 394467 394465 394464 394462 394460 394458 394457 394455 394453 394452 394450 394449 394447 394445 394444 394442 394441 394439 394438 394436 394435 394433 394432 394430 394429 394427 394426 394424 394423 394421 394420 394419 394417 394416 394414 394413 394412 394410 394409 394408 394406 394405 394404 394402 394401 394400 394398 394397 394396 400000 400000 400000 400000 400000 400000 400000 400000 400000 400000 400000 400000 400000 400000 400000 400000 400000 400000 400000 400000 400000 400000 400000 400000 400000 400000 400000 400000 400000 400000 400000 400000 400000 400000 400000 400000 400000 400000 400000 400000 400000 400000 400000 400000 400000 400000 400000 400000 400000 400000 400000 400000 400000 400000 400000 400000 400000 400000 400000 400000 400000 400000 400000 400000 400000 400000 400000 400000 400000 400000 400000 400000 400000 400000 400000 400000 400000 400000 400000 400000 400000 400000 400000 400000 400000 345260 345264 345268 345272 345277 345282 345287 345293 345301 345310 345333 345310 345301 345293 345287 345282 345277 345272 345268 345264 345260 345257 345253 345250 345247 345244 345241 345238 345235 345232 345230 345227 345225 345222 345220 345218 345215 345213 345211 345209 345207 345204 345202 345200 345198 345196 345194 345193 345191 345189 345187 345185 345183 345182 345180 345178 345176 345175 345173 345171 345170 345168 345166 345165 345163 345162 345160 345159 345157 345156 345154 345153 345151 345150 345148 345147 345145 345144 345142 345141 345140 345138 345137 345136 345134 345133 345132 345130 345129 345128 345126 345125 345124 345122 345121 345120 345119 345117 345116 345115 345114 345113 345111 345110 345109 345108 345107 345105 345104 345103 345102 345101 345100 345098 345097 345096 350000 350000 350000 350000 350000 350000 350000 350000 350000 350000 350000 350000 350000 350000 350000 350000 350000 350000 350000 350000 350000 350000 350000 350000 350000 350000 350000 350000 350000 350000 350000 350000 350000 350000 350000 350000 350000 350000 350000 350000 350000 350000 350000 350000 350000 350000 350000 350000 350000 350000 350000 350000 350000 350000 350000 350000 350000 350000 350000 350000 350000 350000 350000 350000 350000 350000 350000 350000 350000 350000 350000 350000 350000 350000 350000 350000 350000 350000 350000 350000 350000 350000 350000 350000 350000 295937 295940 295944 295948 295951 295956 295960 295966 295972 295980 296000 295980 295972 295966 295960 295956 295951 295948 295944 295940 295937 295934 295931 295928 295926 295923 295921 295918 295916 295914 295911 295909 295907 295905 295903 295901 295899 295897 295895 295893 295891 295890 295888 295886 295884 295883 295881 295879 295878 295876 295875 295873 295871 295870 295868 295867 295865 295864 295863 295861 295860 295858 295857 295856 295854 295853 295852 295850 295849 295848 295846 295845 295844 295843 295841 295840 295839 295838 295836 295835 295834 295833 295832 295831 295829 295828 295827 295826 295825 295824 295823 295821 295820 295819 295818 295817 295816 295815 295814 295813 295812 295811 295810 295809 295808 295807 295806 295805 295804 295803 295802 295801 295800 295799 295798 295797 300000 300000 300000 300000 300000 300000 300000 300000 300000 300000 300000 300000 300000 300000 300000 300000 300000 300000 300000 300000 300000 300000 300000 300000 300000 300000 300000 300000 300000 300000 300000 300000 300000 300000 300000 300000 300000 300000 300000 300000 300000 300000 300000 300000 300000 300000 300000 300000 300000 300000 300000 300000 300000 300000 300000 300000 300000 300000 300000 300000 300000 300000 300000 300000 300000 300000 300000 300000 300000 300000 300000 300000 300000 300000 300000 300000 300000 300000 300000 300000 300000 300000 300000 300000 300000 246614 246617 246620 246623 246626 246630 246634 246638 246643 246650 246667 246650 246643 246638 246634 246630 246626 246623 246620 246617 246614 246612 246609 246607 246605 246603 246601 246599 246597 246595 246593 246591 246589 246587 246586 246584 246582 246581 246579 246578 246576 246575 246573 246572 246570 246569 246567 246566 246565 246563 246562 246561 246560 246558 246557 246556 246555 246553 246552 246551 246550 246549 246547 246546 246545 246544 246543 246542 246541 246540 246539 246538 246537 246535 246534 246533 246532 246531 246530 246529 246528 246527 246526 246525 246524 246524 246523 246522 246521 246520 246519 246518 246517 246516 246515 246514 246513 246512 246512 246511 246510 246509 246508 246507 246506 246506 246505 246504 246503 246502 246501 246501 246500 246499 246498 246497 250000 250000 250000 250000 250000 250000 250000 250000 250000 250000 250000 250000 250000 250000 250000 250000 250000 250000 250000 250000 250000 250000 250000 250000 250000 250000 250000 250000 250000 250000 250000 250000 250000 250000 250000 250000 250000 250000 250000 250000 250000 250000 250000 250000 250000 250000 250000 250000 250000 250000 250000 250000 250000 250000 250000 250000 250000 250000 250000 250000 250000 250000 250000 250000 250000 250000 250000 250000 250000 250000 250000 250000 250000 250000 250000 250000 250000 250000 250000 250000 250000 250000 250000 250000 250000 197292 197294 197296 197298 197301 197304 197307 197310 197315 197320 197333 197320 197315 197310 197307 197304 197301 197298 197296 197294 197292 197289 197288 197286 197284 197282 197280 197279 197277 197276 197274 197273 197271 197270 197269 197267 197266 197265 197263 197262 197261 197260 197259 197257 197256 197255 197254 197253 197252 197251 197250 197249 197248 197247 197246 197245 197244 197243 197242 197241 197240 197239 197238 197237 197236 197235 197234 197233 197233 197232 197231 197230 197229 197228 197228 197227 197226 197225 197224 197223 197223 197222 197221 197220 197220 197219 197218 197217 197217 197216 197215 197214 197214 197213 197212 197211 197211 197210 197209 197209 197208 197207 197206 197206 197205 197204 197204 197203 197202 197202 197201 197200 197200 197199 197198 197198 200000 200000 200000 200000 200000 200000 200000 200000 200000 200000 200000 200000 200000 200000 200000 200000 200000 200000 200000 200000 200000 200000 200000 200000 200000 200000 200000 200000 200000 200000 200000 200000 200000 200000 200000 200000 200000 200000 200000 200000 200000 200000 200000 200000 200000 200000 200000 200000 200000 200000 200000 200000 200000 200000 200000 200000 200000 200000 200000 200000 200000 200000 200000 200000 200000 200000 200000 200000 200000 200000 200000 200000 200000 200000 200000 200000 200000 200000 200000 200000 200000 200000 200000 200000 200000 147969 147970 147972 147974 147976 147978 147980 147983 147986 147990 148000 147990 147986 147983 147980 147978 147976 147974 147972 147970 147969 147967 147966 147964 147963 147962 147960 147959 147958 147957 147956 147955 147953 147952 147951 147950 147949 147948 147948 147947 147946 147945 147944 147943 147942 147941 147940 147940 147939 147938 147937 147936 147936 147935 147934 147933 147933 147932 147931 147931 147930 147929 147928 147928 147927 147926 147926 147925 147924 147924 147923 147923 147922 147921 147921 147920 147919 147919 147918 147918 147917 147916 147916 147915 147915 147914 147914 147913 147912 147912 147911 147911 147910 147910 147909 147909 147908 147907 147907 147906 147906 147905 147905 147904 147904 147903 147903 147902 147902 147901 147901 147900 147900 147899 147899 147898 150000 150000 150000 150000 150000 150000 150000 150000 150000 150000 150000 150000 150000 150000 150000 150000 150000 150000 150000 150000 150000 150000 150000 150000 150000 150000 150000 150000 150000 150000 150000 150000 150000 150000 150000 150000 150000 150000 150000 150000 150000 150000 150000 150000 150000 150000 150000 150000 150000 150000 150000 150000 150000 150000 150000 150000 150000 150000 150000 150000 150000 150000 150000 150000 150000 150000 150000 150000 150000 150000 150000 150000 150000 150000 150000 150000 150000 150000 150000 150000 150000 150000 150000 150000 150000 98645.8 98646.8 98648 98649.2 98650.5 98651.9 98653.4 98655.2 98657.3 98660.1 98666.7 98660.1 98657.3 98655.2 98653.4 98651.9 98650.5 98649.2 98648 98646.8 98645.8 98644.7 98643.8 98642.8 98641.9 98641.1 98640.2 98639.4 98638.6 98637.8 98637.1 98636.4 98635.7 98635 98634.3 98633.6 98633 98632.3 98631.7 98631.1 98630.5 98629.9 98629.3 98628.7 98628.1 98627.5 98627 98626.4 98625.9 98625.4 98624.8 98624.3 98623.8 98623.3 98622.8 98622.3 98621.8 98621.3 98620.9 98620.4 98619.9 98619.4 98619 98618.5 98618.1 98617.6 98617.2 98616.7 98616.3 98615.9 98615.4 98615 98614.6 98614.2 98613.8 98613.4 98612.9 98612.5 98612.1 98611.7 98611.3 98611 98610.6 98610.2 98609.8 98609.4 98609 98608.6 98608.3 98607.9 98607.5 98607.2 98606.8 98606.4 98606.1 98605.7 98605.3 98605 98604.6 98604.3 98603.9 98603.6 98603.2 98602.9 98602.6 98602.2 98601.9 98601.5 98601.2 98600.9 98600.5 98600.2 98599.9 98599.6 98599.2 98598.9 100000 100000 100000 100000 100000 100000 100000 100000 100000 100000 100000 100000 100000 100000 100000 100000 100000 100000 100000 100000 100000 100000 100000 100000 100000 100000 100000 100000 100000 100000 100000 100000 100000 100000 100000 100000 100000 100000 100000 100000 100000 100000 100000 100000 100000 100000 100000 100000 100000 100000 100000 100000 100000 100000 100000 100000 100000 100000 100000 100000 100000 100000 100000 100000 100000 100000 100000 100000 100000 100000 100000 100000 100000 100000 100000 100000 100000 100000 100000 100000 100000 100000 100000 100000 100000 49322.9 49323.4 49324 49324.6 49325.2 49325.9 49326.7 49327.6 49328.7 49330 49333.3 49330 49328.7 49327.6 49326.7 49325.9 49325.2 49324.6 49324 49323.4 49322.9 49322.4 49321.9 49321.4 49321 49320.5 49320.1 49319.7 49319.3 49318.9 49318.5 49318.2 49317.8 49317.5 49317.1 49316.8 49316.5 49316.2 49315.8 49315.5 49315.2 49314.9 49314.6 49314.3 49314.1 49313.8 49313.5 49313.2 49313 49312.7 49312.4 49312.2 49311.9 49311.7 49311.4 49311.2 49310.9 49310.7 49310.4 49310.2 49310 49309.7 49309.5 49309.3 49309 49308.8 49308.6 49308.4 49308.2 49307.9 49307.7 49307.5 49307.3 49307.1 49306.9 49306.7 49306.5 49306.3 49306.1 49305.9 49305.7 49305.5 49305.3 49305.1 49304.9 49304.7 49304.5 49304.3 49304.1 49303.9 49303.8 49303.6 49303.4 49303.2 49303 49302.9 49302.7 49302.5 49302.3 49302.1 49302 49301.8 49301.6 49301.5 49301.3 49301.1 49300.9 49300.8 49300.6 49300.4 49300.3 49300.1 49299.9 49299.8 49299.6 49299.5 50000 50000 50000 50000 50000 50000 50000 50000 50000 50000 50000 50000 50000 50000 50000 50000 50000 50000 50000 50000 50000 50000 50000 50000 50000 50000 50000 50000 50000 50000 50000 50000 50000 50000 50000 50000 50000 50000 50000 50000 50000 50000 50000 50000 50000 50000 50000 50000 50000 50000 50000 50000 50000 50000 50000 50000 50000 50000 50000 50000 50000 50000 50000 50000 50000 50000 50000 50000 50000 50000 50000 50000 50000 50000 50000 50000 50000 50000 50000 50000 50000 50000 50000 50000 50000 0 0 0 0 0 0 0 0 0 0 0 0 0 0 0 0 0 0 0 0 0 0 0 0 0 0 0 0 0 0 0 0 0 0 0 0 0 0 0 0 0 0 0 0 0 0 0 0 0 0 0 0 0 0 0 0 0 0 0 0 0 0 0 0 0 0 0 0 0 0 0 0 0 0 0 0 0 0 0 0 0 0 0 0 0 0 0 0 0 0 0 0 0 0 0 0 0 0 0 0 0 0 0 0 0 0 0 0 0 0 0 0 0 0 0 0 0 0 0 0 0 0 0 0 0 0 0 0 0 0 0 0 0 0 0 0 0 0 0 0 0 0 0 0 0 0 0 0 0 0 0 0 0 0 0 0 0 0 0 0 0 0 0 0 0 0 0 0 0 0 0 0 0 0 0 0 0 0 0 0 0 0 0 0 0 0 0 0 0 0 0 0 0 0 0 0 0 0 0 0 0 
</DataArray>
<DataArray Name="Depth wrt reference" format="ascii" type="Float64">