<?xml version="1.0"?>
<VTKFile byte_order="LittleEndian" type="UnstructuredGrid" version="0.1">
<UnstructuredGrid>
<Piece NumberOfCells="800" NumberOfPoints="1005">
<PointData>
<DataArray Name="Depth wrt surface" format="ascii" type="Float64">
739798 739808 739818 739830 739842 739855 739871 739888 739909 739936 740000 739936 739909 739888 739871 739855 739842 739830 739818 739808 739798 739788 739780 739771 739763 739755 739748 739741 739734 739727 739720 739714 739708 739702 739696 739691 739685 739680 739675 739670 739665 739660 739655 739650 739646 739641 739637 739632 739628 739624 739620 739616 739612 739608 739604 739600 739596 739593 739589 739586 739582 739579 739575 739572 739568 739565 739562 739559 739556 739552 739549 739546 739543 739540 739537 739535 739532 739529 739526 739523 739521 739518 739515 739513 739510 739507 739505 739502 739500 739497 739495 739492 739490 739487 739485 739483 739480 739478 739476 739474 739471 739469 739467 739465 739463 739460 739458 739456 739454 739452 739450 739448 739446 739444 739442 739440 750000 750000 750000 750000 750000 750000 750000 750000 750000 750000 750000 750000 750000 750000 750000 750000 750000 750000 750000 750000 750000 750000 750000 750000 750000 750000 750000 750000 750000 750000 750000 750000 750000 750000 750000 750000 750000 750000 750000 750000 750000 750000 750000 750000 750000 750000 750000 750000 750000 750000 750000 750000 750000 750000 750000 750000 750000 750000 750000 750000 750000 750000 750000 750000 750000 750000 750000 750000 750000 750000 750000 750000 750000 750000 750000 750000 750000 750000 750000 750000 750000 750000 750000 750000 750000 554848 554856 554864 554872 554881 554892 554903 554916 554932 554952 555000 554952 554932 554916 554903 554892 554881 554872 554864 554856 554848 554841 554835 554828 554822 554816 554811 554805 554800 554795 554790 554786 554781 554777 554772 554768 554764 554760 554756 554752 554748 554745 554741 554738 554734 554731 554728 554724 554721 554718 554715 554712 554709 554706 554703 554700 554697 554695 554692 554689 554687 554684 554681 554679 554676 554674 554671 554669 554667 554664 554662 554660 554658 554655 554653 554651 554649 554647 554645 554642 554640 554638 554636 554634 554632 554630 554629 554627 554625 554623 554621 554619 554617 554616 554614 554612 554610 554609 554607 554605 554604 554602 554600 554599 554597 554595 554594 554592 554591 554589 554588 554586 554584 554583 554582 554580 562500 562500 562500 562500 562500 562500 562500 562500 562500 562500 562500 562500 562500 562500 562500 562500 562500 562500 562500 562500 562500 562500 562500 562500 562500 562500 562500 562500 562500 562500 562500 562500 562500 562500 562500 562500 562500 562500 562500 562500 562500 562500 562500 562500 562500 562500 562500 562500 562500 562500 562500 562500 562500 562500 562500 562500 562500 562500 562500 562500 562500 562500 562500 562500 562500 562500 562500 562500 562500 562500 562500 562500 562500 562500 562500 562500 562500 562500 562500 562500 562500 562500 562500 562500 562500 369899 369904 369909 369915 369921 369928 369935 369944 369954 369968 370000 369968 369954 369944 369935 369928 369921 369915 369909 369904 369899 369894 369890 369886 369881 369878 369874 369870 369867 369863 369860 369857 369854 369851 369848 369845 369843 369840 369837 369835 369832 369830 369827 369825 369823 369821 369818 369816 369814 369812 369810 369808 369806 369804 369802 369800 369798 369796 369795 369793 369791 369789 369788 369786 369784 369783 369781 369779 369778 369776 369775 369773 369772 369770 369769 369767 369766 369764 369763 369762 369760 369759 369758 369756 369755 369754 369752 369751 369750 369749 369747 369746 369745 369744 369743 369741 369740 369739 369738 369737 369736 369735 369733 369732 369731 369730 369729 369728 369727 369726 369725 369724 369723 369722 369721 369720 375000 375000 375000 375000 375000 375000 375000 375000 375000 375000 375000 375000 375000 375000 375000 375000 375000 375000 375000 375000 375000 375000 375000 375000 375000 375000 375000 375000 375000 375000 375000 375000 375000 375000 375000 375000 375000 375000 375000 375000 375000 375000 375000 375000 375000 375000 375000 375000 375000 375000 375000 375000 375000 375000 375000 375000 375000 375000 375000 375000 375000 375000 375000 375000 375000 375000 375000 375000 375000 375000 375000 375000 375000 375000 375000 375000 375000 375000 375000 375000 375000 375000 375000 375000 375000 184949 184952 184955 184957 184960 184964 184968 184972 184977 184984 185000 184984 184977 184972 184968 184964 184960 184957 184955 184952 184949 184947 184945 184943 184941 184939 184937 184935 184933 184932 184930 184929 184927 184926 184924 184923 184921 184920 184919 184917 184916 184915 184914 184913 184911 184910 184909 184908 184907 184906 184905 184904 184903 184902 184901 184900 184899 184898 184897 184896 184896 184895 184894 184893 184892 184891 184890 184890 184889 184888 184887 184887 184886 184885 184884 184884 184883 184882 184882 184881 184880 184879 184879 184878 184877 184877 184876 184876 184875 184874 184874 184873 184872 184872 184871 184871 184870 184870 184869 184868 184868 184867 184867 184866 184866 184865 184865 184864 184864 184863 184863 184862 184861 184861 184861 184860 187500 187500 187500 187500 187500 187500 187500 187500 187500 187500 187500 187500 187500 187500 187500 187500 187500 187500 187500 187500 187500 187500 187500 187500 187500 187500 187500 187500 187500 187500 187500 187500 187500 187500 187500 187500 187500 187500 187500 187500 187500 187500 187500 187500 187500 187500 187500 187500 187500 187500 187500 187500 187500 187500 187500 187500 187500 187500 187500 187500 187500 187500 187500 187500 187500 187500 187500 187500 187500 187500 187500 187500 187500 187500 187500 187500 187500 187500 187500 187500 187500 187500 187500 187500 187500 0 0 0 0 0 0 0 0 0 0 0 0 0 0 0 0 0 0 0 0 0 0 0 0 0 0 0 0 0 0 0 0 0 0 0 0 0 0 0 0 0 0 0 0 0 0 0 0 0 0 0 0 0 0 0 0 0 0 0 0 0 0 0 0 0 0 0 0 0 0 0 0 0 0 0 0 0 0 0 0 0 0 0 0 0 0 0 0 0 0 0 0 0 0 0 0 0 0 0 0 0 0 0 0 0 0 0 0 0 0 0 0 0 0 0 0 0 0 0 0 0 0 0 0 0 0 0 0 0 0 0 0 0 0 0 0 0 0 0 0 0 0 0 0 0 0 0 0 0 0 0 0 0 0 0 0 0 0 0 0 0 0 0 0 0 0 0 0 0 0 0 0 0 0 0 0 0 0 0 0 0 0 0 0 0 0 0 0 0 0 0 0 0 0 0 0 0 0 0 0 0 
</DataArray>
<DataArray Name="Depth wrt reference" format="ascii" type="Float64">
750000 750000 750000 750000 750000 750000 750000 750000 750000 750000 750000 750000 750000 750000 750000 750000 750000 750000 750000 750000 750000 750000 750000 750000 750000 750000 750000 750000 750000 750000 750000 750000 750000 750000 750000 750000 750000 750000 750000 750000 750000 750000 750000 750000 750000 750000 750000 750000 750000 750000 750000 750000 750000 750000 750000 750000 750000 750000 750000 750000 750000 750000 750000 750000 750000 750000 750000 750000 750000 750000 750000 750000 750000 750000 750000 750000 750000 750000 750000 750000 750000 750000 750000 750000 750000 750000 750000 750000 750000 750000 750000 750000 750000 750000 750000 750000 750000 750000 750000 750000 750000 750000 750000 750000 750000 750000 750000 750000 750000 750000 750000 750000 750000 750000 750000 750000 750000 750000 750000 750000 750000 750000 750000 750000 750000 750000 750000 750000 750000 750000 750000 750000 750000 750000 750000 750000 750000 750000 750000 750000 750000 750000 750000 750000 750000 750000 750000 750000 750000 750000 750000 750000 750000 750000 750000 750000 750000 750000 750000 750000 750000 750000 750000 750000 750000 750000 750000 750000 750000 750000 750000 750000 750000 750000 750000 750000 750000 750000 750000 750000 750000 750000 750000 750000 750000 750000 750000 750000 750000 750000 750000 750000 750000 750000 750000 750000 750000 750000 750000 750000 750000 565051 565048 565045 565043 565040 565036 565032 565028 565023 565016 565000 565016 565023 565028 565032 565036 565040 565043 565045 565048 565051 565053 565055 565057 565059 565061 565063 565065 565067 565068 565070 565071 565073 565074 565076 565077 565079 565080 565081 565083 565084 565085 565086 565087 565089 565090 565091 565092 565093 565094 565095 565096 565097 565098 565099 565100 565101 565102 565103 565104 565104 565105 565106 565107 565108 565109 565110 565110 565111 565112 565113 565113 565114 565115 565116 565116 565117 565118 565118 565119 565120 565121 565121 565122 565123 565123 565124 565124 565125 565126 565126 565127 565128 565128 565129 565129 565130 565130 565131 565132 565132 565133 565133 565134 565134 565135 565135 565136 565136 565137 565137 565138 565139 565139 565139 565140 562500 562500 562500 562500 562500 562500 562500 562500 562500 562500 562500 562500 562500 562500 562500 562500 562500 562500 562500 562500 562500 562500 562500 562500 562500 562500 562500 562500 562500 562500 562500 562500 562500 562500 562500 562500 562500 562500 562500 562500 562500 562500 562500 562500 562500 562500 562500 562500 562500 562500 562500 562500 562500 562500 562500 562500 562500 562500 562500 562500 562500 562500 562500 562500 562500 562500 562500 562500 562500 562500 562500 562500 562500 562500 562500 562500 562500 562500 562500 562500 562500 562500 562500 562500 562500 380101 380096 380091 380085 380079 380072 380065 380056 380046 380032 380000 380032 380046 380056 380065 380072 380079 380085 380091 380096 380101 380106 380110 380114 380119 380122 380126 380130 380133 380137 380140 380143 380146 380149 380152 380155 380157 380160 380163 380165 380168 380170 380173 380175 380177 380179 380182 380184 380186 380188 380190 380192 380194 380196 380198 380200 380202 380204 380205 380207 380209 380211 380212 380214 380216 380217 380219 380221 380222 380224 380225 380227 380228 380230 380231 380233 380234 380236 380237 380238 380240 380241 380242 380244 380245 380246 380248 380249 380250 380251 380253 380254 380255 380256 380257 380259 380260 380261 380262 380263 380264 380265 380267 380268 380269 380270 380271 380272 380273 380274 380275 380276 380277 380278 380279 380280 375000 375000 375000 375000 375000 375000 375000 375000 375000 375000 375000 375000 375000 375000 375000 375000 375000 375000 375000 375000 375000 375000 375000 375000 375000 375000 375000 375000 375000 375000 375000 375000 375000 375000 375000 375000 375000 375000 375000 375000 375000 375000 375000 375000 375000 375000 375000 375000 375000 375000 375000 375000 375000 375000 375000 375000 375000 375000 375000 375000 375000 375000 375000 375000 375000 375000 375000 375000 375000 375000 375000 375000 375000 375000 375000 375000 375000 375000 375000 375000 375000 375000 375000 375000 375000 195152 195144 195136 195128 195119 195108 195097 195084 195068 195048 195000 195048 195068 195084 195097 195108 195119 195128 195136 195144 195152 195159 195165 195172 195178 195184 195189 195195 195200 195205 195210 195214 195219 195223 195228 195232 195236 195240 195244 195248 195252 195255 195259 195262 195266 195269 195272 195276 195279 195282 195285 195288 195291 195294 195297 195300 195303 195305 195308 195311 195313 195316 195319 195321 195324 195326 195329 195331 195333 195336 195338 195340 195342 195345 195347 195349 195351 195353 195355 195358 195360 195362 195364 195366 195368 195370 195371 195373 195375 195377 195379 195381 195383 195384 195386 195388 195390 195391 195393 195395 195396 195398 195400 195401 195403 195405 195406 195408 195409 195411 195412 195414 195416 195417 195418 195420 187500 187500 187500 187500 187500 187500 187500 187500 187500 187500 187500 187500 187500 187500 187500 187500 187500 187500 187500 187500 187500 187500 187500 187500 187500 187500 187500 187500 187500 187500 187500 187500 187500 187500 187500 187500 187500 187500 187500 187500 187500 187500 187500 187500 187500 187500 187500 187500 187500 187500 187500 187500 187500 187500 187500 187500 187500 187500 187500 187500 187500 187500 187500 187500 187500 187500 187500 187500 187500 187500 187500 187500 187500 187500 187500 187500 187500 187500 187500 187500 187500 187500 187500 187500 187500 10202.2 10192.3 10181.7 10170.4 10158 10144.5 10129.4 10112 10091.2 10063.5 10000 10063.5 10091.2 10112 10129.4 10144.5 10158 10170.4 10181.7 10192.3 10202.2 10211.6 10220.5 10229 10237.1 10244.8 10252.3 10259.4 10266.4 10273.1 10279.5 10285.8 10291.9 10297.9 10303.6 10309.3 10314.7 10320.1 10325.3 10330.4 10335.4 10340.3 10345.1 10349.8 10354.4 10358.9 10363.3 10367.7 10371.9 10376.1 10380.2 10384.3 10388.2 10392.2 10396 10399.8 10403.5 10407.2 10410.8 10414.4 10417.9 10421.4 10424.8 10428.2 10431.5 10434.8 10438 10441.2 10444.4 10447.5 10450.6 10453.6 10456.6 10459.6 10462.5 10465.4 10468.3 10471.1 10473.9 10476.7 10479.5 10482.2 10484.8 10487.5 10490.1 10492.7 10495.3 10497.8 10500.3 10502.8 10505.3 10507.7 10510.1 10512.5 10514.9 10517.3 10519.6 10521.9 10524.2 10526.4 10528.7 10530.9 10533.1 10535.3 10537.4 10539.5 10541.7 10543.8 10545.9 10547.9 10550 10552 10554 10556 10558 10559.9 0 0 0 0 0 0 0 0 0 0 0 0 0 0 0 0 0 0 0 0 0 0 0 0 0 0 0 0 0 0 0 0 0 0 0 0 0 0 0 0 0 0 0 0 0 0 0 0 0 0 0 0 0 0 0 0 0 0 0 0 0 0 0 0 0 0 0 0 0 0 0 0 0 0 0 0 0 0 0 0 0 0 0 0 0 
</DataArray>
<DataArray Name="Topography" format="ascii" type="Float64">
-10202.2 -10192.3 -10181.7 -10170.4 -10158 -10144.5 -10129.4 -10112 -10091.2 -10063.5 -10000 -10063.5 -10091.2 -10112 -10129.4 -10144.5 -10158 -10170.4 -10181.7 -10192.3 -10202.2 -10211.6 -10220.5 -10229 -10237.1 -10244.8 -10252.3 -10259.4 -10266.4 -10273.1 -10279.5 -10285.8 -10291.9 -10297.9 -10303.6 -10309.3 -10314.7 -10320.1 -10325.3 -10330.4 -10335.4 -10340.3 -10345.1 -10349.8 -10354.4 -10358.9 -10363.3 -10367.7 -10371.9 -10376.1 -10380.2 -10384.3 -10388.2 -10392.2 -10396 -10399.8 -10403.5 -10407.2 -10410.8 -10414.4 -10417.9 -10421.4 -10424.8 -10428.2 -10431.5 -10434.8 -10438 -10441.2 -10444.4 -10447.5 -10450.6 -10453.6 -10456.6 -10459.6 -10462.5 -10465.4 -10468.3 -10471.1 -10473.9 -10476.7 -10479.5 -10482.2 -10484.8 -10487.5 -10490.1 -10492.7 -10495.3 -10497.8 -10500.3 -10502.8 -10505.3 -10507.7 -10510.1 -10512.5 -10514.9 -10517.3 -10519.6 -10521.9 -10524.2 -10526.4 -10528.7 -10530.9 -10533.1 -10535.3 -10537.4 -10539.5 -10541.7 -10543.8 -10545.9 -10547.9 -10550 -10552 -10554 -10556 -10558 -10559.9 0 0 0 0 0 0 0 0 0 0 0 0 0 0 0 0 0 0 0 0 0 0 0 0 0 0 0 0 0 0 0 0 0 0 0 0 0 0 0 0 0 0 0 0 0 0 0 0 0 0 0 0 0 0 0 0 0 0 0 0 0 0 0 0 0 0 0 0 0 0 0 0 0 0 0 0 0 0 0 0 0 0 0 0 0 -10202.2 -10192.3 -10181.7 -10170.4 -10158 -10144.5 -10129.4 -10112 -10091.2 -10063.5 -10000 -10063.5 -10091.2 -10112 -10129.4 -10144.5 -10158 -10170.4 -10181.7 -10192.3 -10202.2 -10211.6 -10220.5 -10229 -10237.1 -10244.8 -10252.3 -10259.4 -10266.4 -10273.1 -10279.5 -10285.8 -10291.9 -10297.9 -10303.6 -10309.3 -10314.7 -10320.1 -10325.3 -10330.4 -10335.4 -10340.3 -10345.1 -10349.8 -10354.4 -10358.9 -10363.3 -10367.7 -10371.9 -10376.1 -10380.2 -10384.3 -10388.2 -10392.2 -10396 -10399.8 -10403.5 -10407.2 -10410.8 -10414.4 -10417.9 -10421.4 -10424.8 -10428.2 -10431.5 -10434.8 -10438 -10441.2 -10444.4 -10447.5 -10450.6 -10453.6 -10456.6 -10459.6 -10462.5 -10465.4 -10468.3 -10471.1 -10473.9 -10476.7 -10479.5 -10482.2 -10484.8 -10487.5 -10490.1 -10492.7 -10495.3 -10497.8 -10500.3 -10502.8 -10505.3 -10507.7 -10510.1 -10512.5 -10514.9 -10517.3 -10519.6 -10521.9 -10524.2 -10526.4 -10528.7 -10530.9 -10533.1 -10535.3 -10537.4 -10539.5 -10541.7 -10543.8 -10545.9 -10547.9 -10550 -10552 -10554 -10556 -10558 -10559.9 0 0 0 0 0 0 0 0 0 0 0 0 0 0 0 0 0 0 0 0 0 0 0 0 0 0 0 0 0 0 0 0 0 0 0 0 0 0 0 0 0 0 0 0 0 0 0 0 0 0 0 0 0 0 0 0 0 0 0 0 0 0 0 0 0 0 0 0 0 0 0 0 0 0 0 0 0 0 0 0 0 0 0 0 0 -10202.2 -10192.3 -10181.7 -10170.4 -10158 -10144.5 -10129.4 -10112 -10091.2 -10063.5 -10000 -10063.5 -10091.2 -10112 -10129.4 -10144.5 -10158 -10170.4 -10181.7 -10192.3 -10202.2 -10211.6 -10220.5 -10229 -10237.1 -10244.8 -10252.3 -10259.4 -10266.4 -10273.1 -10279.5 -10285.8 -10291.9 -10297.9 -10303.6 -10309.3 -10314.7 -10320.1 -10325.3 -10330.4 -10335.4 -10340.3 -10345.1 -10349.8 -10354.4 -10358.9 -10363.3 -10367.7 -10371.9 -10376.1 -10380.2 -10384.3 -10388.2 -10392.2 -10396 -10399.8 -10403.5 -10407.2 -10410.8 -10414.4 -10417.9 -10421.4 -10424.8 -10428.2 -10431.5 -10434.8 -10438 -10441.2 -10444.4 -10447.5 -10450.6 -10453.6 -10456.6 -10459.6 -10462.5 -10465.4 -10468.3 -10471.1 -10473.9 -10476.7 -10479.5 -10482.2 -10484.8 -10487.5 -10490.1 -10492.7 -10495.3 -10497.8 -10500.3 -10502.8 -10505.3 -10507.7 -10510.1 -10512.5 -10514.9 -10517.3 -10519.6 -10521.9 -10524.2 -10526.4 -10528.7 -10530.9 -10533.1 -10535.3 -10537.4 -10539.5 -10541.7 -10543.8 -10545.9 -10547.9 -10550 -10552 -10554 -10556 -10558 -10559.9 0 0 0 0 0 0 0 0 0 0 0 0 0 0 0 0 0 0 0 0 0 0 0 0 0 0 0 0 0 0 0 0 0 0 0 0 0 0 0 0 0 0 0 0 0 0 0 0 0 0 0 0 0 0 0 0 0 0 0 0 0 0 0 0 0 0 0 0 0 0 0 0 0 0 0 0 0 0 0 0 0 0 0 0 0 -10202.2 -10192.3 -10181.7 -10170.4 -10158 -10144.5 -10129.4 -10112 -10091.2 -10063.5 -10000 -10063.5 -10091.2 -10112 -10129.4 -10144.5 -10158 -10170.4 -10181.7 -10192.3 -10202.2 -10211.6 -10220.5 -10229 -10237.1 -10244.8 -10252.3 -10259.4 -10266.4 -10273.1 -10279.5 -10285.8 -10291.9 -10297.9 -10303.6 -10309.3 -10314.7 -10320.1 -10325.3 -10330.4 -10335.4 -10340.3 -10345.1 -10349.8 -10354.4 -10358.9 -10363.3 -10367.7 -10371.9 -10376.1 -10380.2 -10384.3 -10388.2 -10392.2 -10396 -10399.8 -10403.5 -10407.2 -10410.8 -10414.4 -10417.9 -10421.4 -10424.8 -10428.2 -10431.5 -10434.8 -10438 -10441.2 -10444.4 -10447.5 -10450.6 -10453.6 -10456.6 -10459.6 -10462.5 -10465.4 -10468.3 -10471.1 -10473.9 -10476.7 -10479.5 -10482.2 -10484.8 -10487.5 -10490.1 -10492.7 -10495.3 -10497.8 -10500.3 -10502.8 -10505.3 -10507.7 -10510.1 -10512.5 -10514.9 -10517.3 -10519.6 -10521.9 -10524.2 -10526.4 -10528.7 -10530.9 -10533.1 -10535.3 -10537.4 -10539.5 -10541.7 -10543.8 -10545.9 -10547.9 -10550 -10552 -10554 -10556 -10558 -10559.9 0 0 0 0 0 0 0 0 0 0 0 0 0 0 0 0 0 0 0 0 0 0 0 0 0 0 0 0 0 0 0 0 0 0 0 0 0 0 0 0 0 0 0 0 0 0 0 0 0 0 0 0 0 0 0 0 0 0 0 0 0 0 0 0 0 0 0 0 0 0 0 0 0 0 0 0 0 0 0 0 0 0 0 0 0 -10202.2 -10192.3 -10181.7 -10170.4 -10158 -10144.5 -10129.4 -10112 -10091.2 -10063.5 -10000 -10063.5 -10091.2 -10112 -10129.4 -10144.5 -10158 -10170.4 -10181.7 -10192.3 -10202.2 -10211.6 -10220.5 -10229 -10237.1 -10244.8 -10252.3 -10259.4 -10266.4 -10273.1 -10279.5 -10285.8 -10291.9 -10297.9 -10303.6 -10309.3 -10314.7 -10320.1 -10325.3 -10330.4 -10335.4 -10340.3 -10345.1 -10349.8 -10354.4 -10358.9 -10363.3 -10367.7 -10371.9 -10376.1 -10380.2 -10384.3 -10388.2 -10392.2 -10396 -10399.8 -10403.5 -10407.2 -10410.8 -10414.4 -10417.9 -10421.4 -10424.8 -10428.2 -10431.5 -10434.8 -10438 -10441.2 -10444.4 -10447.5 -10450.6 -10453.6 -10456.6 -10459.6 -10462.5 -10465.4 -10468.3 -10471.1 -10473.9 -10476.7 -10479.5 -10482.2 -10484.8 -10487.5 -10490.1 -10492.7 -10495.3 -10497.8 -10500.3 -10502.8 -10505.3 -10507.7 -10510.1 -10512.5 -10514.9 -10517.3 -10519.6 -10521.9 -10524.2 -10526.4 -10528.7 -10530.9 -10533.1 -10535.3 -10537.4 -10539.5 -10541.7 -10543.8 -10545.9 -10547.9 -10550 -10552 -10554 -10556 -10558 -10559.9 0 0 0 0 0 0 0 0 0 0 0 0 0 0 0 0 0 0 0 0 0 0 0 0 0 0 0 0 0 0 0 0 0 0 0 0 0 0 0 0 0 0 0 0 0 0 0 0 0 0 0 0 0 0 0 0 0 0 0 0 0 0 0 0 0 0 0 0 0 0 0 0 0 0 0 0 0 0 0 0 0 0 0 0 0 
</DataArray>
<DataArray Name="Temperature" format="ascii" type="Float64">
1848.73 1848.73 1848.73 1848.74 1848.74 1848.75 1848.75 1848.76 1848.77 1848.78 1848.8 1848.78 1848.77 1848.76 1848.75 1848.75 1848.74 1848.74 1848.73 1848.73 1848.73 1848.72 1848.72 1848.72 1848.71 1848.71 1848.71 1848.71 1848.7 1848.7 1848.7 1848.7 1848.69 1848.69 1848.69 1848.69 1848.69 1848.68 1848.68 1848.68 1848.68 1848.68 1848.68 1848.67 1848.67 1848.67 1848.67 1848.67 1848.67 1848.66 1848.66 1848.66 1848.66 1848.66 1848.66 1848.66 1848.65 1848.65 1848.65 1848.65 1848.65 1848.65 1848.65 1848.65 1848.64 1848.64 1848.64 1848.64 1848.64 1848.64 1848.64 1848.64 1848.64 1848.63 1848.63 1848.63 1848.63 1848.63 1848.63 1848.63 1848.63 1848.63 1848.63 1848.62 1848.62 1848.62 1848.62 1848.62 1848.62 1848.62 1848.62 1848.62 1848.62 1848.62 1848.61 1848.61 1848.61 1848.61 1848.61 1848.61 1848.61 1848.61 1848.61 1848.61 1848.61 1848.61 1848.6 1848.6 1848.6 1848.6 1848.6 1848.6 1848.6 1848.6 1848.6 1848.6 1852.4 1852.4 1852.4 1852.4 1852.4 1852.4 1852.4 1852.4 1852.4 1852.4 1852.4 1852.4 1852.4 1852.4 1852.4 1852.4 1852.4 1852.4 1852.4 1852.4 1852.4 1852.4 1852.4 1852.4 1852.4 1852.4 1852.4 1852.4 1852.4 1852.4 1852.4 1852.4 1852.4 1852.4 1852.4 1852.4 1852.4 1852.4 1852.4 1852.4 1852.4 1852.4 1852.4 1852.4 1852.4 1852.4 1852.4 1852.4 1852.4 1852.4 1852.4 1852.4 1852.4 1852.4 1852.4 1852.4 1852.4 1852.4 1852.4 1852.4 1852.4 1852.4 1852.4 1852.4 1852.4 1852.4 1852.4 1852.4 1852.4 1852.4 1852.4 1852.4 1852.4 1852.4 1852.4 1852.4 1852.4 1852.4 1852.4 1852.4 1852.4 1852.4 1852.4 1852.4 1852.4 1779.06 1779.06 1779.06 1779.07 1779.07 1779.07 1779.08 1779.08 1779.09 1779.1 1779.12 1779.1 1779.09 1779.08 1779.08 1779.07 1779.07 1779.07 1779.06 1779.06 1779.06 1779.05 1779.05 1779.05 1779.05 1779.04 1779.04 1779.04 1779.04 1779.04 1779.03 1779.03 1779.03 1779.03 1779.03 1779.02 1779.02 1779.02 1779.02 1779.02 1779.02 1779.02 1779.01 1779.01 1779.01 1779.01 1779.01 1779.01 1779.01 1779.01 1779 1779 1779 1779 1779 1779 1779 1779 1779 1778.99 1778.99 1778.99 1778.99 1778.99 1778.99 1778.99 1778.99 1778.99 1778.99 1778.98 1778.98 1778.98 1778.98 1778.98 1778.98 1778.98 1778.98 1778.98 1778.98 1778.98 1778.98 1778.97 1778.97 1778.97 1778.97 1778.97 1778.97 1778.97 1778.97 1778.97 1778.97 1778.97 1778.97 1778.97 1778.96 1778.96 1778.96 1778.96 1778.96 1778.96 1778.96 1778.96 1778.96 1778.96 1778.96 1778.96 1778.96 1778.96 1778.96 1778.96 1778.95 1778.95 1778.95 1778.95 1778.95 1778.95 1782.04 1782.04 1782.04 1782.04 1782.04 1782.04 1782.04 1782.04 1782.04 1782.04 1782.04 1782.04 1782.04 1782.04 1782.04 1782.04 1782.04 1782.04 1782.04 1782.04 1782.04 1782.04 1782.04 1782.04 1782.04 1782.04 1782.04 1782.04 1782.04 1782.04 1782.04 1782.04 1782.04 1782.04 1782.04 1782.04 1782.04 1782.04 1782.04 1782.04 1782.04 1782.04 1782.04 1782.04 1782.04 1782.04 1782.04 1782.04 1782.04 1782.04 1782.04 1782.04 1782.04 1782.04 1782.04 1782.04 1782.04 1782.04 1782.04 1782.04 1782.04 1782.04 1782.04 1782.04 1782.04 1782.04 1782.04 1782.04 1782.04 1782.04 1782.04 1782.04 1782.04 1782.04 1782.04 1782.04 1782.04 1782.04 1782.04 1782.04 1782.04 1782.04 1782.04 1782.04 1782.04 1707.04 1707.04 1707.04 1707.05 1707.05 1707.05 1707.05 1707.06 1707.06 1707.07 1707.08 1707.07 1707.06 1707.06 1707.05 1707.05 1707.05 1707.05 1707.04 1707.04 1707.04 1707.04 1707.04 1707.04 1707.03 1707.03 1707.03 1707.03 1707.03 1707.03 1707.03 1707.02 1707.02 1707.02 1707.02 1707.02 1707.02 1707.02 1707.02 1707.02 1707.01 1707.01 1707.01 1707.01 1707.01 1707.01 1707.01 1707.01 1707.01 1707.01 1707.01 1707 1707 1707 1707 1707 1707 1707 1707 1707 1707 1707 1707 1707 1707 1706.99 1706.99 1706.99 1706.99 1706.99 1706.99 1706.99 1706.99 1706.99 1706.99 1706.99 1706.99 1706.99 1706.99 1706.99 1706.99 1706.99 1706.99 1706.98 1706.98 1706.98 1706.98 1706.98 1706.98 1706.98 1706.98 1706.98 1706.98 1706.98 1706.98 1706.98 1706.98 1706.98 1706.98 1706.98 1706.98 1706.98 1706.98 1706.98 1706.98 1706.97 1706.97 1706.97 1706.97 1706.97 1706.97 1706.97 1706.97 1706.97 1706.97 1706.97 1709.03 1709.03 1709.03 1709.03 1709.03 1709.03 1709.03 1709.03 1709.03 1709.03 1709.03 1709.03 1709.03 1709.03 1709.03 1709.03 1709.03 1709.03 1709.03 1709.03 1709.03 1709.03 1709.03 1709.03 1709.03 1709.03 1709.03 1709.03 1709.03 1709.03 1709.03 1709.03 1709.03 1709.03 1709.03 1709.03 1709.03 1709.03 1709.03 1709.03 1709.03 1590.25 1567.33 1547.81 1531.69 1518.87 1509.27 1502.75 1499.19 1498.47 1499.82 1501.25 1502.67 1504.09 1505.49 1506.88 1508.26 1509.62 1510.97 1512.31 1709.03 1709.03 1709.03 1709.03 1709.03 1709.03 1709.03 1709.03 1709.03 1709.03 1709.03 1709.03 1709.03 1709.03 1709.03 1709.03 1709.03 1709.03 1709.03 1709.03 1709.03 1709.03 1709.03 1709.03 1709.03 1635.02 1635.03 1635.03 1635.03 1635.03 1635.03 1635.03 1635.03 1635.04 1635.04 1635.04 1635.04 1635.04 1635.03 1635.03 1635.03 1635.03 1635.03 1635.03 1635.03 1635.02 1635.02 1635.02 1635.02 1635.02 1635.02 1635.02 1635.02 1635.02 1635.02 1635.02 1635.02 1635.02 1635.02 1635.01 1635.01 1635.01 1635.01 1635.01 1635.01 1635.01 1635.01 1635.01 1635.01 1635.01 1635.01 1635.01 1635.01 1635.01 1635.01 1635.01 1635.01 1635.01 1635.01 1635.01 1635.01 1635 1635 1635 1635 1635 1635 1635 1635 1635 1635 1635 1635 1635 1635 1635 1635 1635 1635 1635 1635 1635 1635 1635 1635 1635 1635 1635 1635 1635 1635 1635 1635 1635 1635 1635 1634.99 1634.99 1634.99 1634.99 1634.99 1634.99 1634.99 1634.99 1634.99 1634.99 1634.99 1634.99 1634.99 1634.99 1634.99 1634.99 1634.99 1634.99 1634.99 1634.99 1634.99 1634.99 1634.99 1634.99 1634.99 1636.02 1636.02 1636.02 1636.02 1636.02 1636.02 1636.02 1636.02 1636.02 1636.02 1636.02 1636.02 1636.02 1636.02 1636.02 1586.76 1490.88 1397.47 1309.1 1229.48 1163.51 1116.96 1095.63 1104.21 1145.06 1217.26 1316.3 1434.45 1561.84 1636.02 1636.02 1636.02 1636.02 1636.02 1636.02 1636.02 1636.02 1636.02 1636.02 1636.02 1636.02 1636.02 1636.02 1636.02 1636.02 1636.02 1636.02 1636.02 1636.02 1636.02 1636.02 1636.02 1636.02 1636.02 1636.02 1636.02 1636.02 1636.02 1636.02 1636.02 1636.02 1636.02 1636.02 1636.02 1636.02 1636.02 1636.02 1636.02 1636.02 1636.02 1636.02 1636.02 1636.02 1636.02 1636.02 1636.02 1636.02 1636.02 1636.02 1636.02 1636.02 1636.02 1636.02 1636.02 1636.02 293.15 293.15 293.15 293.15 293.15 293.15 293.15 293.15 293.15 293.15 293.15 293.15 293.15 293.15 293.15 293.15 293.15 293.15 293.15 293.15 293.15 293.15 293.15 293.15 293.15 293.15 293.15 293.15 293.15 293.15 293.15 293.15 293.15 293.15 293.15 293.15 293.15 293.15 293.15 293.15 293.15 293.15 293.15 293.15 293.15 293.15 293.15 293.15 293.15 293.15 293.15 293.15 293.15 293.15 293.15 293.15 293.15 293.15 293.15 293.15 293.15 293.15 293.15 293.15 293.15 293.15 293.15 293.15 293.15 293.15 293.15 293.15 293.15 293.15 293.15 293.15 293.15 293.15 293.15 293.15 293.15 293.15 293.15 293.15 293.15 293.15 293.15 293.15 293.15 293.15 293.15 293.15 293.15 293.15 293.15 293.15 293.15 293.15 293.15 293.15 293.15 293.15 293.15 293.15 293.15 293.15 293.15 293.15 293.15 293.15 293.15 293.15 293.15 293.15 293.15 1600 293.15 293.15 293.15 293.15 293.15 293.15 293.15 293.15 293.15 293.15 293.15 293.15 293.15 293.15 293.15 293.15 293.15 293.15 293.15 293.15 293.15 293.15 293.15 293.15 293.15 293.15 293.15 293.15 293.15 293.15 293.15 293.15 293.15 293.15 293.15 293.15 293.15 293.15 293.15 293.15 293.15 293.15 293.15 293.15 293.15 293.15 293.15 293.15 293.15 293.15 293.15 293.15 293.15 293.15 293.15 293.15 293.15 293.15 293.15 293.15 293.15 293.15 293.15 293.15 293.15 293.15 293.15 293.15 293.15 293.15 293.15 293.15 293.15 293.15 293.15 293.15 293.15 293.15 293.15 293.15 293.15 293.15 293.15 293.15 293.15 
</DataArray>
<DataArray Name="velocity" NumberOfComponents="3" format="ascii" type="Float64">