<?xml version="1.0"?>
<VTKFile byte_order="LittleEndian" type="UnstructuredGrid" version="0.1">
<UnstructuredGrid>
<Piece NumberOfCells="3720" NumberOfPoints="4608">
<PointData>
<DataArray Name="Depth wrt surface" format="ascii" type="Float64">
10100 8837.5 7575 6312.5 5050 3787.5 2525 1262.5 0 10100 8837.5 7575 6312.5 5050 3787.5 2525 1262.5 0 10100 8837.5 7575 6312.5 5050 3787.5 2525 1262.5 0 10100 8837.5 7575 6312.5 5050 3787.5 2525 1262.5 0 10100 8837.5 7575 6312.5 5050 3787.5 2525 1262.5 0 10100 8837.5 7575 6312.5 5050 3787.5 2525 1262.5 0 10100 8837.5 7575 6312.5 5050 3787.5 2525 1262.5 0 10100 8837.5 7575 6312.5 5050 3787.5 2525 1262.5 0 10100 8837.5 7575 6312.5 5050 3787.5 2525 1262.5 0 10100 8837.5 7575 6312.5 5050 3787.5 2525 1262.5 0 10100 8837.5 7575 6312.5 5050 3787.5 2525 1262.5 0 14835.9 12981.4 11126.9 9272.42 7417.93 5563.45 3708.97 1854.48 0 14771.5 12925 11078.6 9232.17 7385.74 5539.3 3692.87 1846.43 0 14737.2 12895.1 11052.9 9210.77 7368.61 5526.46 3684.31 1842.15 0 14713.1 12874 11034.8 9195.7 7356.56 5517.42 3678.28 1839.14 0 14600 12775 10950 9125 7300 5475 3650 1825 0 10100 8837.5 7575 6312.5 5050 3787.5 2525 1262.5 0 10100 8837.5 7575 6312.5 5050 3787.5 2525 1262.5 0 10100 8837.5 7575 6312.5 5050 3787.5 2525 1262.5 0 10100 8837.5 7575 6312.5 5050 3787.5 2525 1262.5 0 10100 8837.5 7575 6312.5 5050 3787.5 2525 1262.5 0 10100 8837.5 7575 6312.5 5050 3787.5 2525 1262.5 0 10100 8837.5 7575 6312.5 5050 3787.5 2525 1262.5 0 10100 8837.5 7575 6312.5 5050 3787.5 2525 1262.5 0 10100 8837.5 7575 6312.5 5050 3787.5 2525 1262.5 0 10100 8837.5 7575 6312.5 5050 3787.5 2525 1262.5 0 10100 8837.5 7575 6312.5 5050 3787.5 2525 1262.5 0 14923.6 13058.1 11192.7 9327.24 7461.79 5596.34 3730.9 1865.45 0 14877.9 13018.2 11158.4 9298.69 7438.95 5579.21 3719.47 1859.74 0 14805.5 12954.9 11104.2 9253.47 7402.77 5552.08 3701.39 1850.69 0 14716.1 12876.6 11037.1 9197.57 7358.06 5518.54 3679.03 1839.51 0 14593 12768.9 10944.8 9120.63 7296.5 5472.38 3648.25 1824.13 0 10100 8837.5 7575 6312.5 5050 3787.5 2525 1262.5 0 10100 8837.5 7575 6312.5 5050 3787.5 2525 1262.5 0 10100 8837.5 7575 6312.5 5050 3787.5 2525 1262.5 0 10100 8837.5 7575 6312.5 5050 3787.5 2525 1262.5 0 10100 8837.5 7575 6312.5 5050 3787.5 2525 1262.5 0 10100 8837.5 7575 6312.5 5050 3787.5 2525 1262.5 0 10100 8837.5 7575 6312.5 5050 3787.5 2525 1262.5 0 10100 8837.5 7575 6312.5 5050 3787.5 2525 1262.5 0 10100 8837.5 7575 6312.5 5050 3787.5 2525 1262.5 0 10100 8837.5 7575 6312.5 5050 3787.5 2525 1262.5 0 10100 8837.5 7575 6312.5 5050 3787.5 2525 1262.5 0 14997.5 13122.8 11248.1 9373.43 7498.74 5624.06 3749.37 1874.69 0 14868.7 13010.1 11151.5 9292.91 7434.33 5575.75 3717.17 1858.58 0 14734 12892.3 11050.5 9208.75 7367 5525.25 3683.5 1841.75 0 14657.9 12825.7 10993.5 9161.22 7328.97 5496.73 3664.49 1832.24 0 14530.7 12714.4 10898 9081.69 7265.35 5449.01 3632.67 1816.34 0 10100 8837.5 7575 6312.5 5050 3787.5 2525 1262.5 0 10100 8837.5 7575 6312.5 5050 3787.5 2525 1262.5 0 10100 8837.5 7575 6312.5 5050 3787.5 2525 1262.5 0 10100 8837.5 7575 6312.5 5050 3787.5 2525 1262.5 0 10100 8837.5 7575 6312.5 5050 3787.5 2525 1262.5 0 10100 8837.5 7575 6312.5 5050 3787.5 2525 1262.5 0 10100 8837.5 7575 6312.5 5050 3787.5 2525 1262.5 0 10100 8837.5 7575 6312.5 5050 3787.5 2525 1262.5 0 10100 8837.5 7575 6312.5 5050 3787.5 2525 1262.5 0 10100 8837.5 7575 6312.5 5050 3787.5 2525 1262.5 0 10100 8837.5 7575 6312.5 5050 3787.5 2525 1262.5 0 15119.5 13229.6 11339.6 9449.7 7559.76 5669.82 3779.88 1889.94 0 14922.6 13057.3 11192 9326.65 7461.32 5595.99 3730.66 1865.33 0 14756 12911.5 11067 9222.52 7378.02 5533.51 3689.01 1844.5 0 14651.4 12820 10988.6 9157.16 7325.72 5494.29 3662.86 1831.43 0 14507.6 12694.1 10880.7 9067.25 7253.8 5440.35 3626.9 1813.45 0 10100 8837.5 7575 6312.5 5050 3787.5 2525 1262.5 0 10100 8837.5 7575 6312.5 5050 3787.5 2525 1262.5 0 10100 8837.5 7575 6312.5 5050 3787.5 2525 1262.5 0 10100 8837.5 7575 6312.5 5050 3787.5 2525 1262.5 0 10100 8837.5 7575 6312.5 5050 3787.5 2525 1262.5 0 10100 8837.5 7575 6312.5 5050 3787.5 2525 1262.5 0 10100 8837.5 7575 6312.5 5050 3787.5 2525 1262.5 0 10100 8837.5 7575 6312.5 5050 3787.5 2525 1262.5 0 10100 8837.5 7575 6312.5 5050 3787.5 2525 1262.5 0 10100 8837.5 7575 6312.5 5050 3787.5 2525 1262.5 0 10100 8837.5 7575 6312.5 5050 3787.5 2525 1262.5 0 15197 13297.4 11397.7 9498.12 7598.49 5698.87 3799.25 1899.62 0 15036 13156.5 11277 9397.52 7518.02 5638.51 3759.01 1879.5 0 14844.3 12988.7 11133.2 9277.66 7422.13 5566.59 3711.06 1855.53 0 14744 12901 11058 9215 7372 5529 3686 1843 0 14629.4 12800.7 10972 9143.34 7314.68 5486.01 3657.34 1828.67 0 10100 8837.5 7575 6312.5 5050 3787.5 2525 1262.5 0 10100 8837.5 7575 6312.5 5050 3787.5 2525 1262.5 0 10100 8837.5 7575 6312.5 5050 3787.5 2525 1262.5 0 10100 8837.5 7575 6312.5 5050 3787.5 2525 1262.5 0 10100 8837.5 7575 6312.5 5050 3787.5 2525 1262.5 0 10100 8837.5 7575 6312.5 5050 3787.5 2525 1262.5 0 10100 8837.5 7575 6312.5 5050 3787.5 2525 1262.5 0 10100 8837.5 7575 6312.5 5050 3787.5 2525 1262.5 0 10100 8837.5 7575 6312.5 5050 3787.5 2525 1262.5 0 10100 8837.5 7575 6312.5 5050 3787.5 2525 1262.5 0 10100 8837.5 7575 6312.5 5050 3787.5 2525 1262.5 0 15191.8 13292.9 11393.9 9494.9 7595.92 5696.94 3797.96 1898.98 0 15011.2 13134.8 11258.4 9382 7505.6 5629.2 3752.8 1876.4 0 14838.8 12983.9 11129.1 9274.24 7419.39 5564.54 3709.69 1854.85 0 14787 12938.6 11090.2 9241.87 7393.5 5545.12 3696.75 1848.37 0 14730.6 12889.2 11047.9 9206.6 7365.28 5523.96 3682.64 1841.32 0 10100 8837.5 7575 6312.5 5050 3787.5 2525 1262.5 0 10100 8837.5 7575 6312.5 5050 3787.5 2525 1262.5 0 10100 8837.5 7575 6312.5 5050 3787.5 2525 1262.5 0 10100 8837.5 7575 6312.5 5050 3787.5 2525 1262.5 0 10100 8837.5 7575 6312.5 5050 3787.5 2525 1262.5 0 10100 8837.5 7575 6312.5 5050 3787.5 2525 1262.5 0 10100 8837.5 7575 6312.5 5050 3787.5 2525 1262.5 0 10100 8837.5 7575 6312.5 5050 3787.5 2525 1262.5 0 10100 8837.5 7575 6312.5 5050 3787.5 2525 1262.5 0 10100 8837.5 7575 6312.5 5050 3787.5 2525 1262.5 0 10100 8837.5 7575 6312.5 5050 3787.5 2525 1262.5 0 15093.1 13206.5 11319.9 9433.21 7546.57 5659.93 3773.28 1886.64 0 15021.9 13144.2 11266.4 9388.71 7510.97 5633.22 3755.48 1877.74 0 14899.4 13037 11174.6 9312.15 7449.72 5587.29 3724.86 1862.43 0 14828.6 12975.1 11121.5 9267.89 7414.31 5560.74 3707.16 1853.58 0 14763.8 12918.3 11072.8 9227.37 7381.9 5536.42 3690.95 1845.47 0 10100 8837.5 7575 6312.5 5050 3787.5 2525 1262.5 0 10100 8837.5 7575 6312.5 5050 3787.5 2525 1262.5 0 10100 8837.5 7575 6312.5 5050 3787.5 2525 1262.5 0 10100 8837.5 7575 6312.5 5050 3787.5 2525 1262.5 0 10100 8837.5 7575 6312.5 5050 3787.5 2525 1262.5 0 10100 8837.5 7575 6312.5 5050 3787.5 2525 1262.5 0 10100 8837.5 7575 6312.5 5050 3787.5 2525 1262.5 0 10100 8837.5 7575 6312.5 5050 3787.5 2525 1262.5 0 10100 8837.5 7575 6312.5 5050 3787.5 2525 1262.5 0 10100 8837.5 7575 6312.5 5050 3787.5 2525 1262.5 0 10100 8837.5 7575 6312.5 5050 3787.5 2525 1262.5 0 14976.5 13104.4 11232.4 9360.3 7488.24 5616.18 3744.12 1872.06 0 14962.1 13091.8 11221.5 9351.28 7481.03 5610.77 3740.51 1870.26 0 14928.1 13062.1 11196.1 9330.06 7464.05 5598.03 3732.02 1866.01 0 14835 12980.6 11126.3 9271.88 7417.5 5563.13 3708.75 1854.38 0 14798.2 12948.4 11098.6 9248.86 7399.09 5549.32 3699.54 1849.77 0 10100 8837.5 7575 6312.5 5050 3787.5 2525 1262.5 0 10100 8837.5 7575 6312.5 5050 3787.5 2525 1262.5 0 10100 8837.5 7575 6312.5 5050 3787.5 2525 1262.5 0 10100 8837.5 7575 6312.5 5050 3787.5 2525 1262.5 0 10100 8837.5 7575 6312.5 5050 3787.5 2525 1262.5 0 10100 8837.5 7575 6312.5 5050 3787.5 2525 1262.5 0 10100 8837.5 7575 6312.5 5050 3787.5 2525 1262.5 0 10100 8837.5 7575 6312.5 5050 3787.5 2525 1262.5 0 10100 8837.5 7575 6312.5 5050 3787.5 2525 1262.5 0 10100 8837.5 7575 6312.5 5050 3787.5 2525 1262.5 0 10100 8837.5 7575 6312.5 5050 3787.5 2525 1262.5 0 14906 13042.8 11179.5 9316.26 7453.01 5589.76 3726.5 1863.25 0 9000 7875 6750 5625 4500 3375 2250 1125 0 9000 7875 6750 5625 4500 3375 2250 1125 0 9000 7875 6750 5625 4500 3375 2250 1125 0 9000 7875 6750 5625 4500 3375 2250 1125 0 10100 8837.5 7575 6312.5 5050 3787.5 2525 1262.5 0 10100 8837.5 7575 6312.5 5050 3787.5 2525 1262.5 0 10100 8837.5 7575 6312.5 5050 3787.5 2525 1262.5 0 10100 8837.5 7575 6312.5 5050 3787.5 2525 1262.5 0 10100 8837.5 7575 6312.5 5050 3787.5 2525 1262.5 0 10100 8837.5 7575 6312.5 5050 3787.5 2525 1262.5 0 10100 8837.5 7575 6312.5 5050 3787.5 2525 1262.5 0 10100 8837.5 7575 6312.5 5050 3787.5 2525 1262.5 0 10100 8837.5 7575 6312.5 5050 3787.5 2525 1262.5 0 10100 8837.5 7575 6312.5 5050 3787.5 2525 1262.5 0 10100 8837.5 7575 6312.5 5050 3787.5 2525 1262.5 0 14853.6 12996.9 11140.2 9283.51 7426.8 5570.1 3713.4 1856.7 0 9000 7875 6750 5625 4500 3375 2250 1125 0 9000 7875 6750 5625 4500 3375 2250 1125 0 9000 7875 6750 5625 4500 3375 2250 1125 0 9000 7875 6750 5625 4500 3375 2250 1125 0 10100 8837.5 7575 6312.5 5050 3787.5 2525 1262.5 0 10100 8837.5 7575 6312.5 5050 3787.5 2525 1262.5 0 10100 8837.5 7575 6312.5 5050 3787.5 2525 1262.5 0 10896.1 9534.11 8172.09 6810.08 5448.06 4086.05 2724.03 1362.02 0 10926.5 9560.65 8194.84 6829.03 5463.23 4097.42 2731.61 1365.81 0 11057.6 9675.42 8293.22 6911.02 5528.81 4146.61 2764.41 1382.2 0 10100 8837.5 7575 6312.5 5050 3787.5 2525 1262.5 0 10100 8837.5 7575 6312.5 5050 3787.5 2525 1262.5 0 10100 8837.5 7575 6312.5 5050 3787.5 2525 1262.5 0 10100 8837.5 7575 6312.5 5050 3787.5 2525 1262.5 0 10100 8837.5 7575 6312.5 5050 3787.5 2525 1262.5 0 14794.5 12945.2 11095.8 9246.54 7397.23 5547.92 3698.62 1849.31 0 9000 7875 6750 5625 4500 3375 2250 1125 0 9000 7875 6750 5625 4500 3375 2250 1125 0 9000 7875 6750 5625 4500 3375 2250 1125 0 9000 7875 6750 5625 4500 3375 2250 1125 0 10100 8837.5 7575 6312.5 5050 3787.5 2525 1262.5 0 10100 8837.5 7575 6312.5 5050 3787.5 2525 1262.5 0 10100 8837.5 7575 6312.5 5050 3787.5 2525 1262.5 0 10829.5 9475.77 8122.09 6768.41 5414.73 4061.05 2707.36 1353.68 0 10854.6 9497.82 8140.99 6784.16 5427.32 4070.49 2713.66 1356.83 0 10961.2 9591.06 8220.91 6850.76 5480.61 4110.45 2740.3 1370.15 0 10100 8837.5 7575 6312.5 5050 3787.5 2525 1262.5 0 10100 8837.5 7575 6312.5 5050 3787.5 2525 1262.5 0 10100 8837.5 7575 6312.5 5050 3787.5 2525 1262.5 0 10100 8837.5 7575 6312.5 5050 3787.5 2525 1262.5 0 10100 8837.5 7575 6312.5 5050 3787.5 2525 1262.5 0 14908 13044.5 11181 9317.53 7454.02 5590.52 3727.01 1863.51 0 9000 7875 6750 5625 4500 3375 2250 1125 0 9000 7875 6750 5625 4500 3375 2250 1125 0 9000 7875 6750 5625 4500 3375 2250 1125 0 9000 7875 6750 5625 4500 3375 2250 1125 0 10100 8837.5 7575 6312.5 5050 3787.5 2525 1262.5 0 10100 8837.5 7575 6312.5 5050 3787.5 2525 1262.5 0 10100 8837.5 7575 6312.5 5050 3787.5 2525 1262.5 0 10852.6 9496 8139.43 6782.86 5426.29 4069.72 2713.14 1356.57 0 10893.9 9532.17 8170.43 6808.69 5446.95 4085.22 2723.48 1361.74 0 11018.5 9641.2 8263.88 6886.57 5509.25 4131.94 2754.63 1377.31 0 10100 8837.5 7575 6312.5 5050 3787.5 2525 1262.5 0 10100 8837.5 7575 6312.5 5050 3787.5 2525 1262.5 0 10100 8837.5 7575 6312.5 5050 3787.5 2525 1262.5 0 10100 8837.5 7575 6312.5 5050 3787.5 2525 1262.5 0 10100 8837.5 7575 6312.5 5050 3787.5 2525 1262.5 0 15013.7 13137 11260.3 9383.56 7506.84 5630.13 3753.42 1876.71 0 9000 7875 6750 5625 4500 3375 2250 1125 0 9000 7875 6750 5625 4500 3375 2250 1125 0 9000 7875 6750 5625 4500 3375 2250 1125 0 9000 7875 6750 5625 4500 3375 2250 1125 0 10100 8837.5 7575 6312.5 5050 3787.5 2525 1262.5 0 10100 8837.5 7575 6312.5 5050 3787.5 2525 1262.5 0 10100 8837.5 7575 6312.5 5050 3787.5 2525 1262.5 0 10811.6 9460.13 8108.69 6757.24 5405.79 4054.34 2702.9 1351.45 0 10887.3 9526.43 8165.51 6804.59 5443.67 4082.75 2721.84 1360.92 0 10988.6 9615 8241.43 6867.86 5494.29 4120.72 2747.14 1373.57 0 10100 8837.5 7575 6312.5 5050 3787.5 2525 1262.5 0 10100 8837.5 7575 6312.5 5050 3787.5 2525 1262.5 0 10100 8837.5 7575 6312.5 5050 3787.5 2525 1262.5 0 10100 8837.5 7575 6312.5 5050 3787.5 2525 1262.5 0 10100 8837.5 7575 6312.5 5050 3787.5 2525 1262.5 0 15139.8 13247.3 11354.8 9462.37 7569.9 5677.42 3784.95 1892.47 0 9000 7875 6750 5625 4500 3375 2250 1125 0 9000 7875 6750 5625 4500 3375 2250 1125 0 9000 7875 6750 5625 4500 3375 2250 1125 0 9000 7875 6750 5625 4500 3375 2250 1125 0 10100 8837.5 7575 6312.5 5050 3787.5 2525 1262.5 0 10100 8837.5 7575 6312.5 5050 3787.5 2525 1262.5 0 10100 8837.5 7575 6312.5 5050 3787.5 2525 1262.5 0 10100 8837.5 7575 6312.5 5050 3787.5 2525 1262.5 0 10100 8837.5 7575 6312.5 5050 3787.5 2525 1262.5 0 10100 8837.5 7575 6312.5 5050 3787.5 2525 1262.5 0 10100 8837.5 7575 6312.5 5050 3787.5 2525 1262.5 0 10100 8837.5 7575 6312.5 5050 3787.5 2525 1262.5 0 10100 8837.5 7575 6312.5 5050 3787.5 2525 1262.5 0 10100 8837.5 7575 6312.5 5050 3787.5 2525 1262.5 0 10100 8837.5 7575 6312.5 5050 3787.5 2525 1262.5 0 15261.7 13354 11446.2 9538.54 7630.83 5723.12 3815.42 1907.71 0 9000 7875 6750 5625 4500 3375 2250 1125 0 9000 7875 6750 5625 4500 3375 2250 1125 0 9000 7875 6750 5625 4500 3375 2250 1125 0 9000 7875 6750 5625 4500 3375 2250 1125 0 10100 8837.5 7575 6312.5 5050 3787.5 2525 1262.5 0 10100 8837.5 7575 6312.5 5050 3787.5 2525 1262.5 0 10100 8837.5 7575 6312.5 5050 3787.5 2525 1262.5 0 10100 8837.5 7575 6312.5 5050 3787.5 2525 1262.5 0 10100 8837.5 7575 6312.5 5050 3787.5 2525 1262.5 0 10100 8837.5 7575 6312.5 5050 3787.5 2525 1262.5 0 10100 8837.5 7575 6312.5 5050 3787.5 2525 1262.5 0 10100 8837.5 7575 6312.5 5050 3787.5 2525 1262.5 0 10100 8837.5 7575 6312.5 5050 3787.5 2525 1262.5 0 10100 8837.5 7575 6312.5 5050 3787.5 2525 1262.5 0 10100 8837.5 7575 6312.5 5050 3787.5 2525 1262.5 0 15219.8 13317.4 11414.9 9512.4 7609.92 5707.44 3804.96 1902.48 0 9000 7875 6750 5625 4500 3375 2250 1125 0 9000 7875 6750 5625 4500 3375 2250 1125 0 9000 7875 6750 5625 4500 3375 2250 1125 0 9000 7875 6750 5625 4500 3375 2250 1125 0 10100 8837.5 7575 6312.5 5050 3787.5 2525 1262.5 0 10100 8837.5 7575 6312.5 5050 3787.5 2525 1262.5 0 10100 8837.5 7575 6312.5 5050 3787.5 2525 1262.5 0 10100 8837.5 7575 6312.5 5050 3787.5 2525 1262.5 0 10100 8837.5 7575 6312.5 5050 3787.5 2525 1262.5 0 10100 8837.5 7575 6312.5 5050 3787.5 2525 1262.5 0 10100 8837.5 7575 6312.5 5050 3787.5 2525 1262.5 0 10100 8837.5 7575 6312.5 5050 3787.5 2525 1262.5 0 10100 8837.5 7575 6312.5 5050 3787.5 2525 1262.5 0 10100 8837.5 7575 6312.5 5050 3787.5 2525 1262.5 0 10100 8837.5 7575 6312.5 5050 3787.5 2525 1262.5 0 15041.9 13161.6 11281.4 9401.16 7520.93 5640.7 3760.46 1880.23 0 17000 14875 12750 10625 8500 6375 4250 2125 0 17000 14875 12750 10625 8500 6375 4250 2125 0 17000 14875 12750 10625 8500 6375 4250 2125 0 17000 14875 12750 10625 8500 6375 4250 2125 0 10100 8837.5 7575 6312.5 5050 3787.5 2525 1262.5 0 10100 8837.5 7575 6312.5 5050 3787.5 2525 1262.5 0 10100 8837.5 7575 6312.5 5050 3787.5 2525 1262.5 0 10100 8837.5 7575 6312.5 5050 3787.5 2525 1262.5 0 10100 8837.5 7575 6312.5 5050 3787.5 2525 1262.5 0 10100 8837.5 7575 6312.5 5050 3787.5 2525 1262.5 0 10100 8837.5 7575 6312.5 5050 3787.5 2525 1262.5 0 10100 8837.5 7575 6312.5 5050 3787.5 2525 1262.5 0 10100 8837.5 7575 6312.5 5050 3787.5 2525 1262.5 0 10100 8837.5 7575 6312.5 5050 3787.5 2525 1262.5 0 10100 8837.5 7575 6312.5 5050 3787.5 2525 1262.5 0 14859.9 13002.4 11144.9 9287.43 7429.95 5572.46 3714.97 1857.49 0 17000 14875 12750 10625 8500 6375 4250 2125 0 17000 14875 12750 10625 8500 6375 4250 2125 0 17000 14875 12750 10625 8500 6375 4250 2125 0 17000 14875 12750 10625 8500 6375 4250 2125 0 10100 8837.5 7575 6312.5 5050 3787.5 2525 1262.5 0 10100 8837.5 7575 6312.5 5050 3787.5 2525 1262.5 0 10100 8837.5 7575 6312.5 5050 3787.5 2525 1262.5 0 10100 8837.5 7575 6312.5 5050 3787.5 2525 1262.5 0 10100 8837.5 7575 6312.5 5050 3787.5 2525 1262.5 0 10100 8837.5 7575 6312.5 5050 3787.5 2525 1262.5 0 10100 8837.5 7575 6312.5 5050 3787.5 2525 1262.5 0 10100 8837.5 7575 6312.5 5050 3787.5 2525 1262.5 0 10100 8837.5 7575 6312.5 5050 3787.5 2525 1262.5 0 10100 8837.5 7575 6312.5 5050 3787.5 2525 1262.5 0 10100 8837.5 7575 6312.5 5050 3787.5 2525 1262.5 0 14857.6 13000.4 11143.2 9286 7428.8 5571.6 3714.4 1857.2 0 17000 14875 12750 10625 8500 6375 4250 2125 0 17000 14875 12750 10625 8500 6375 4250 2125 0 17000 14875 12750 10625 8500 6375 4250 2125 0 17000 14875 12750 10625 8500 6375 4250 2125 0 10100 8837.5 7575 6312.5 5050 3787.5 2525 1262.5 0 10100 8837.5 7575 6312.5 5050 3787.5 2525 1262.5 0 10100 8837.5 7575 6312.5 5050 3787.5 2525 1262.5 0 10100 8837.5 7575 6312.5 5050 3787.5 2525 1262.5 0 10100 8837.5 7575 6312.5 5050 3787.5 2525 1262.5 0 10100 8837.5 7575 6312.5 5050 3787.5 2525 1262.5 0 10100 8837.5 7575 6312.5 5050 3787.5 2525 1262.5 0 10100 8837.5 7575 6312.5 5050 3787.5 2525 1262.5 0 10100 8837.5 7575 6312.5 5050 3787.5 2525 1262.5 0 10100 8837.5 7575 6312.5 5050 3787.5 2525 1262.5 0 10100 8837.5 7575 6312.5 5050 3787.5 2525 1262.5 0 14947.5 13079.1 11210.6 9342.19 7473.75 5605.31 3736.88 1868.44 0 17000 14875 12750 10625 8500 6375 4250 2125 0 17000 14875 12750 10625 8500 6375 4250 2125 0 17000 14875 12750 10625 8500 6375 4250 2125 0 17000 14875 12750 10625 8500 6375 4250 2125 0 10100 8837.5 7575 6312.5 5050 3787.5 2525 1262.5 0 10100 8837.5 7575 6312.5 5050 3787.5 2525 1262.5 0 10100 8837.5 7575 6312.5 5050 3787.5 2525 1262.5 0 10100 8837.5 7575 6312.5 5050 3787.5 2525 1262.5 0 10100 8837.5 7575 6312.5 5050 3787.5 2525 1262.5 0 10100 8837.5 7575 6312.5 5050 3787.5 2525 1262.5 0 10100 8837.5 7575 6312.5 5050 3787.5 2525 1262.5 0 10100 8837.5 7575 6312.5 5050 3787.5 2525 1262.5 0 10100 8837.5 7575 6312.5 5050 3787.5 2525 1262.5 0 10100 8837.5 7575 6312.5 5050 3787.5 2525 1262.5 0 10100 8837.5 7575 6312.5 5050 3787.5 2525 1262.5 0 14908.8 13045.2 11181.6 9318 7454.4 5590.8 3727.2 1863.6 0 17000 14875 12750 10625 8500 6375 4250 2125 0 17000 14875 12750 10625 8500 6375 4250 2125 0 17000 14875 12750 10625 8500 6375 4250 2125 0 17000 14875 12750 10625 8500 6375 4250 2125 0 10100 8837.5 7575 6312.5 5050 3787.5 2525 1262.5 0 10100 8837.5 7575 6312.5 5050 3787.5 2525 1262.5 0 10100 8837.5 7575 6312.5 5050 3787.5 2525 1262.5 0 10100 8837.5 7575 6312.5 5050 3787.5 2525 1262.5 0 10100 8837.5 7575 6312.5 5050 3787.5 2525 1262.5 0 10100 8837.5 7575 6312.5 5050 3787.5 2525 1262.5 0 10100 8837.5 7575 6312.5 5050 3787.5 2525 1262.5 0 10100 8837.5 7575 6312.5 5050 3787.5 2525 1262.5 0 10100 8837.5 7575 6312.5 5050 3787.5 2525 1262.5 0 10100 8837.5 7575 6312.5 5050 3787.5 2525 1262.5 0 10100 8837.5 7575 6312.5 5050 3787.5 2525 1262.5 0 15009.2 13133 11256.9 9380.74 7504.59 5628.44 3752.3 1876.15 0 17000 14875 12750 10625 8500 6375 4250 2125 0 17000 14875 12750 10625 8500 6375 4250 2125 0 17000 14875 12750 10625 8500 6375 4250 2125 0 17000 14875 12750 10625 8500 6375 4250 2125 0 10100 8837.5 7575 6312.5 5050 3787.5 2525 1262.5 0 10100 8837.5 7575 6312.5 5050 3787.5 2525 1262.5 0 10100 8837.5 7575 6312.5 5050 3787.5 2525 1262.5 0 10100 8837.5 7575 6312.5 5050 3787.5 2525 1262.5 0 10100 8837.5 7575 6312.5 5050 3787.5 2525 1262.5 0 10100 8837.5 7575 6312.5 5050 3787.5 2525 1262.5 0 10100 8837.5 7575 6312.5 5050 3787.5 2525 1262.5 0 10100 8837.5 7575 6312.5 5050 3787.5 2525 1262.5 0 10100 8837.5 7575 6312.5 5050 3787.5 2525 1262.5 0 10100 8837.5 7575 6312.5 5050 3787.5 2525 1262.5 0 10100 8837.5 7575 6312.5 5050 3787.5 2525 1262.5 0 15088.4 13202.3 11316.3 9430.22 7544.18 5658.13 3772.09 1886.04 0 17000 14875 12750 10625 8500 6375 4250 2125 0 17000 14875 12750 10625 8500 6375 4250 2125 0 17000 14875 12750 10625 8500 6375 4250 2125 0 17000 14875 12750 10625 8500 6375 4250 2125 0 10100 8837.5 7575 6312.5 5050 3787.5 2525 1262.5 0 10100 8837.5 7575 6312.5 5050 3787.5 2525 1262.5 0 10100 8837.5 7575 6312.5 5050 3787.5 2525 1262.5 0 10100 8837.5 7575 6312.5 5050 3787.5 2525 1262.5 0 10100 8837.5 7575 6312.5 5050 3787.5 2525 1262.5 0 10100 8837.5 7575 6312.5 5050 3787.5 2525 1262.5 0 10100 8837.5 7575 6312.5 5050 3787.5 2525 1262.5 0 10100 8837.5 7575 6312.5 5050 3787.5 2525 1262.5 0 10100 8837.5 7575 6312.5 5050 3787.5 2525 1262.5 0 10100 8837.5 7575 6312.5 5050 3787.5 2525 1262.5 0 10100 8837.5 7575 6312.5 5050 3787.5 2525 1262.5 0 15088.7 13202.6 11316.5 9430.44 7544.36 5658.27 3772.18 1886.09 0 17000 14875 12750 10625 8500 6375 4250 2125 0 17000 14875 12750 10625 8500 6375 4250 2125 0 17000 14875 12750 10625 8500 6375 4250 2125 0 17000 14875 12750 10625 8500 6375 4250 2125 0 10100 8837.5 7575 6312.5 5050 3787.5 2525 1262.5 0 10100 8837.5 7575 6312.5 5050 3787.5 2525 1262.5 0 10100 8837.5 7575 6312.5 5050 3787.5 2525 1262.5 0 10100 8837.5 7575 6312.5 5050 3787.5 2525 1262.5 0 10100 8837.5 7575 6312.5 5050 3787.5 2525 1262.5 0 10100 8837.5 7575 6312.5 5050 3787.5 2525 1262.5 0 10100 8837.5 7575 6312.5 5050 3787.5 2525 1262.5 0 10100 8837.5 7575 6312.5 5050 3787.5 2525 1262.5 0 10100 8837.5 7575 6312.5 5050 3787.5 2525 1262.5 0 10100 8837.5 7575 6312.5 5050 3787.5 2525 1262.5 0 10100 8837.5 7575 6312.5 5050 3787.5 2525 1262.5 0 15037.8 13158.1 11278.4 9398.64 7518.91 5639.19 3759.46 1879.73 0 17000 14875 12750 10625 8500 6375 4250 2125 0 17000 14875 12750 10625 8500 6375 4250 2125 0 17000 14875 12750 10625 8500 6375 4250 2125 0 17000 14875 12750 10625 8500 6375 4250 2125 0 10100 8837.5 7575 6312.5 5050 3787.5 2525 1262.5 0 10100 8837.5 7575 6312.5 5050 3787.5 2525 1262.5 0 10100 8837.5 7575 6312.5 5050 3787.5 2525 1262.5 0 10100 8837.5 7575 6312.5 5050 3787.5 2525 1262.5 0 10100 8837.5 7575 6312.5 5050 3787.5 2525 1262.5 0 10100 8837.5 7575 6312.5 5050 3787.5 2525 1262.5 0 10100 8837.5 7575 6312.5 5050 3787.5 2525 1262.5 0 10100 8837.5 7575 6312.5 5050 3787.5 2525 1262.5 0 10100 8837.5 7575 6312.5 5050 3787.5 2525 1262.5 0 10100 8837.5 7575 6312.5 5050 3787.5 2525 1262.5 0 10100 8837.5 7575 6312.5 5050 3787.5 2525 1262.5 0 15047.4 13166.5 11285.6 9404.64 7523.71 5642.79 3761.86 1880.93 0 15121.4 13231.3 11341.1 9450.9 7560.72 5670.54 3780.36 1890.18 0 15220.3 13317.7 11415.2 9512.68 7610.14 5707.61 3805.07 1902.54 0 15240.5 13335.5 11430.4 9525.34 7620.27 5715.2 3810.14 1905.07 0 15119.7 13229.8 11339.8 9449.83 7559.87 5669.9 3779.93 1889.97 0 10100 8837.5 7575 6312.5 5050 3787.5 2525 1262.5 0 10100 8837.5 7575 6312.5 5050 3787.5 2525 1262.5 0 10100 8837.5 7575 6312.5 5050 3787.5 2525 1262.5 0 10100 8837.5 7575 6312.5 5050 3787.5 2525 1262.5 0 10100 8837.5 7575 6312.5 5050 3787.5 2525 1262.5 0 10100 8837.5 7575 6312.5 5050 3787.5 2525 1262.5 0 10100 8837.5 7575 6312.5 5050 3787.5 2525 1262.5 0 10100 8837.5 7575 6312.5 5050 3787.5 2525 1262.5 0 10100 8837.5 7575 6312.5 5050 3787.5 2525 1262.5 0 10100 8837.5 7575 6312.5 5050 3787.5 2525 1262.5 0 10100 8837.5 7575 6312.5 5050 3787.5 2525 1262.5 0 15196.1 13296.6 11397.1 9497.57 7598.06 5698.54 3799.03 1899.51 0 15250.5 13344.2 11437.9 9531.59 7625.27 5718.95 3812.64 1906.32 0 15255.6 13348.6 11441.7 9534.74 7627.79 5720.84 3813.89 1906.95 0 15115.8 13226.3 11336.8 9447.36 7557.88 5668.41 3778.94 1889.47 0 14962.8 13092.5 11222.1 9351.77 7481.42 5611.06 3740.71 1870.35 0 10100 8837.5 7575 6312.5 5050 3787.5 2525 1262.5 0 10100 8837.5 7575 6312.5 5050 3787.5 2525 1262.5 0 10100 8837.5 7575 6312.5 5050 3787.5 2525 1262.5 0 10100 8837.5 7575 6312.5 5050 3787.5 2525 1262.5 0 10100 8837.5 7575 6312.5 5050 3787.5 2525 1262.5 0 10100 8837.5 7575 6312.5 5050 3787.5 2525 1262.5 0 10100 8837.5 7575 6312.5 5050 3787.5 2525 1262.5 0 10100 8837.5 7575 6312.5 5050 3787.5 2525 1262.5 0 10100 8837.5 7575 6312.5 5050 3787.5 2525 1262.5 0 10100 8837.5 7575 6312.5 5050 3787.5 2525 1262.5 0 10100 8837.5 7575 6312.5 5050 3787.5 2525 1262.5 0 15285.1 13374.5 11463.9 9553.21 7642.57 5731.93 3821.28 1910.64 0 15262 13354.3 11446.5 9538.77 7631.02 5723.26 3815.51 1907.75 0 15176.1 13279.1 11382.1 9485.09 7588.07 5691.05 3794.03 1897.02 0 15066.2 13182.9 11299.7 9416.39 7533.11 5649.83 3766.56 1883.28 0 14992.6 13118.5 11244.4 9370.36 7496.29 5622.22 3748.14 1874.07 0 10100 8837.5 7575 6312.5 5050 3787.5 2525 1262.5 0 10100 8837.5 7575 6312.5 5050 3787.5 2525 1262.5 0 10100 8837.5 7575 6312.5 5050 3787.5 2525 1262.5 0 10100 8837.5 7575 6312.5 5050 3787.5 2525 1262.5 0 10100 8837.5 7575 6312.5 5050 3787.5 2525 1262.5 0 10100 8837.5 7575 6312.5 5050 3787.5 2525 1262.5 0 10100 8837.5 7575 6312.5 5050 3787.5 2525 1262.5 0 10100 8837.5 7575 6312.5 5050 3787.5 2525 1262.5 0 10100 8837.5 7575 6312.5 5050 3787.5 2525 1262.5 0 10100 8837.5 7575 6312.5 5050 3787.5 2525 1262.5 0 10100 8837.5 7575 6312.5 5050 3787.5 2525 1262.5 0 15214.7 13312.8 11411 9509.16 7607.33 5705.49 3803.66 1901.83 0 15255.6 13348.6 11441.7 9534.75 7627.8 5720.85 3813.9 1906.95 0 15205.1 13304.5 11403.8 9503.19 7602.55 5701.91 3801.28 1900.64 0 15074 13189.7 11305.5 9421.24 7536.99 5652.74 3768.49 1884.25 0 14990 13116.3 11242.5 9368.76 7495.01 5621.25 3747.5 1873.75 0 10100 8837.5 7575 6312.5 5050 3787.5 2525 1262.5 0 10100 8837.5 7575 6312.5 5050 3787.5 2525 1262.5 0 10100 8837.5 7575 6312.5 5050 3787.5 2525 1262.5 0 10100 8837.5 7575 6312.5 5050 3787.5 2525 1262.5 0 10100 8837.5 7575 6312.5 5050 3787.5 2525 1262.5 0 10100 8837.5 7575 6312.5 5050 3787.5 2525 1262.5 0 10100 8837.5 7575 6312.5 5050 3787.5 2525 1262.5 0 10100 8837.5 7575 6312.5 5050 3787.5 2525 1262.5 0 10100 8837.5 7575 6312.5 5050 3787.5 2525 1262.5 0 10100 8837.5 7575 6312.5 5050 3787.5 2525 1262.5 0 10100 8837.5 7575 6312.5 5050 3787.5 2525 1262.5 0 15101 13213.4 11325.8 9438.14 7550.52 5662.89 3775.26 1887.63 0 15137.4 13245.2 11353 9460.87 7568.7 5676.52 3784.35 1892.17 0 15173.4 13276.7 11380 9483.35 7586.68 5690.01 3793.34 1896.67 0 15066.8 13183.5 11300.1 9416.77 7533.42 5650.06 3766.71 1883.35 0 14983.5 13110.5 11237.6 9364.67 7491.74 5618.8 3745.87 1872.93 0 10100 8837.5 7575 6312.5 5050 3787.5 2525 1262.5 0 10100 8837.5 7575 6312.5 5050 3787.5 2525 1262.5 0 10100 8837.5 7575 6312.5 5050 3787.5 2525 1262.5 0 10100 8837.5 7575 6312.5 5050 3787.5 2525 1262.5 0 10100 8837.5 7575 6312.5 5050 3787.5 2525 1262.5 0 10100 8837.5 7575 6312.5 5050 3787.5 2525 1262.5 0 10100 8837.5 7575 6312.5 5050 3787.5 2525 1262.5 0 10100 8837.5 7575 6312.5 5050 3787.5 2525 1262.5 0 10100 8837.5 7575 6312.5 5050 3787.5 2525 1262.5 0 10100 8837.5 7575 6312.5 5050 3787.5 2525 1262.5 0 10100 8837.5 7575 6312.5 5050 3787.5 2525 1262.5 0 15089.1 13203 11316.8 9430.7 7544.56 5658.42 3772.28 1886.14 0 15022.3 13144.5 11266.7 9388.93 7511.15 5633.36 3755.57 1877.79 0 14981 13108.4 11235.8 9363.13 7490.5 5617.88 3745.25 1872.63 0 14962.9 13092.5 11222.2 9351.81 7481.45 5611.09 3740.72 1870.36 0 14997.7 13123 11248.2 9373.54 7498.83 5624.12 3749.42 1874.71 0 10100 8837.5 7575 6312.5 5050 3787.5 2525 1262.5 0 10100 8837.5 7575 6312.5 5050 3787.5 2525 1262.5 0 10100 8837.5 7575 6312.5 5050 3787.5 2525 1262.5 0 10100 8837.5 7575 6312.5 5050 3787.5 2525 1262.5 0 10100 8837.5 7575 6312.5 5050 3787.5 2525 1262.5 0 10100 8837.5 7575 6312.5 5050 3787.5 2525 1262.5 0 10100 8837.5 7575 6312.5 5050 3787.5 2525 1262.5 0 10100 8837.5 7575 6312.5 5050 3787.5 2525 1262.5 0 10100 8837.5 7575 6312.5 5050 3787.5 2525 1262.5 0 10100 8837.5 7575 6312.5 5050 3787.5 2525 1262.5 0 10100 8837.5 7575 6312.5 5050 3787.5 2525 1262.5 0 15081 13195.9 11310.8 9425.65 7540.52 5655.39 3770.26 1885.13 0 15037.5 13157.8 11278.1 9398.41 7518.73 5639.05 3759.37 1879.68 0 14963.3 13092.9 11222.5 9352.06 7481.64 5611.23 3740.82 1870.41 0 14929.5 13063.3 11197.1 9330.94 7464.75 5598.56 3732.37 1866.19 0 15000 13125 11250 9375 7500 5625 3750 1875 0 
</DataArray>
<DataArray Name="Depth wrt reference" format="ascii" type="Float64">