<?xml version="1.0"?>
<VTKFile byte_order="LittleEndian" type="UnstructuredGrid" version="0.1">
<UnstructuredGrid>
<Piece NumberOfCells="3720" NumberOfPoints="4608">
<PointData>
<DataArray Name="Depth wrt surface" format="ascii" type="Float64">
30000 26250 22500 18750 15000 11250 7500 3750 0 30000 26250 22500 18750 15000 11250 7500 3750 0 30000 26250 22500 18750 15000 11250 7500 3750 0 30000 26250 22500 18750 15000 11250 7500 3750 0 30000 26250 22500 18750 15000 11250 7500 3750 0 30000 26250 22500 18750 15000 11250 7500 3750 0 30000 26250 22500 18750 15000 11250 7500 3750 0 30000 26250 22500 18750 15000 11250 7500 3750 0 30000 26250 22500 18750 15000 11250 7500 3750 0 30000 26250 22500 18750 15000 11250 7500 3750 0 80000 70000 60000 50000 40000 30000 20000 10000 0 80000 70000 60000 50000 40000 30000 20000 10000 0 80000 70000 60000 50000 40000 30000 20000 10000 0 80000 70000 60000 50000 40000 30000 20000 10000 0 80000 70000 60000 50000 40000 30000 20000 10000 0 80000 70000 60000 50000 40000 30000 20000 10000 0 30000 26250 22500 18750 15000 11250 7500 3750 0 30000 26250 22500 18750 15000 11250 7500 3750 0 30000 26250 22500 18750 15000 11250 7500 3750 0 30000 26250 22500 18750 15000 11250 7500 3750 0 30000 26250 22500 18750 15000 11250 7500 3750 0 30000 26250 22500 18750 15000 11250 7500 3750 0 30000 26250 22500 18750 15000 11250 7500 3750 0 30000 26250 22500 18750 15000 11250 7500 3750 0 30000 26250 22500 18750 15000 11250 7500 3750 0 30000 26250 22500 18750 15000 11250 7500 3750 0 80000 70000 60000 50000 40000 30000 20000 10000 0 80000 70000 60000 50000 40000 30000 20000 10000 0 80000 70000 60000 50000 40000 30000 20000 10000 0 80000 70000 60000 50000 40000 30000 20000 10000 0 80000 70000 60000 50000 40000 30000 20000 10000 0 80000 70000 60000 50000 40000 30000 20000 10000 0 30000 26250 22500 18750 15000 11250 7500 3750 0 30000 26250 22500 18750 15000 11250 7500 3750 0 30000 26250 22500 18750 15000 11250 7500 3750 0 30000 26250 22500 18750 15000 11250 7500 3750 0 30000 26250 22500 18750 15000 11250 7500 3750 0 30000 26250 22500 18750 15000 11250 7500 3750 0 30000 26250 22500 18750 15000 11250 7500 3750 0 30000 26250 22500 18750 15000 11250 7500 3750 0 30000 26250 22500 18750 15000 11250 7500 3750 0 30000 26250 22500 18750 15000 11250 7500 3750 0 80000 70000 22500 50000 15000 30000 7500 10000 0 80000 70000 60000 50000 40000 30000 20000 10000 0 80000 70000 60000 50000 40000 30000 20000 10000 0 80000 70000 60000 50000 40000 30000 20000 10000 0 80000 70000 60000 50000 40000 30000 20000 10000 0 80000 70000 60000 50000 40000 30000 20000 10000 0 30000 26250 22500 18750 15000 11250 7500 3750 0 30000 26250 22500 18750 15000 11250 7500 3750 0 30000 26250 22500 18750 15000 11250 7500 3750 0 30000 26250 22500 18750 15000 11250 7500 3750 0 30000 26250 22500 18750 15000 11250 7500 3750 0 30000 26250 22500 18750 15000 11250 7500 3750 0 30000 26250 22500 18750 15000 11250 7500 3750 0 30000 26250 22500 18750 15000 11250 7500 3750 0 30000 26250 22500 18750 15000 11250 7500 3750 0 30000 26250 22500 18750 15000 11250 7500 3750 0 80000 70000 60000 50000 40000 30000 20000 10000 0 80000 70000 60000 50000 40000 30000 20000 10000 0 80000 70000 60000 50000 40000 30000 20000 10000 0 80000 70000 60000 50000 40000 30000 20000 10000 0 80000 70000 60000 50000 40000 30000 20000 10000 0 80000 70000 60000 50000 40000 30000 20000 10000 0 30000 26250 22500 18750 15000 11250 7500 3750 0 30000 26250 22500 18750 15000 11250 7500 3750 0 30000 26250 22500 18750 15000 11250 7500 3750 0 30000 26250 22500 18750 15000 11250 7500 3750 0 30000 26250 22500 18750 15000 11250 7500 3750 0 30000 26250 22500 18750 15000 11250 7500 3750 0 30000 26250 22500 18750 15000 11250 7500 3750 0 30000 26250 22500 18750 15000 11250 7500 3750 0 30000 26250 22500 18750 15000 11250 7500 3750 0 30000 26250 22500 18750 15000 11250 7500 3750 0 80000 70000 22500 50000 40000 30000 20000 10000 0 80000 70000 60000 50000 40000 30000 20000 10000 0 80000 70000 60000 50000 40000 30000 20000 10000 0 80000 70000 60000 50000 40000 30000 20000 10000 0 80000 70000 60000 50000 40000 30000 20000 10000 0 80000 70000 60000 50000 40000 30000 20000 10000 0 30000 26250 22500 18750 15000 11250 7500 3750 0 30000 26250 22500 18750 15000 11250 7500 3750 0 30000 26250 22500 18750 15000 11250 7500 3750 0 30000 26250 22500 18750 15000 11250 7500 3750 0 30000 26250 22500 18750 15000 11250 7500 3750 0 30000 26250 22500 18750 15000 11250 7500 3750 0 30000 26250 22500 18750 15000 11250 7500 3750 0 30000 26250 22500 18750 15000 11250 7500 3750 0 30000 26250 22500 18750 15000 11250 7500 3750 0 30000 26250 22500 18750 15000 11250 7500 3750 0 80000 70000 60000 50000 40000 30000 20000 10000 0 80000 70000 60000 50000 40000 30000 20000 10000 0 80000 70000 60000 50000 40000 30000 20000 10000 0 80000 70000 60000 50000 40000 30000 20000 10000 0 80000 70000 60000 50000 40000 30000 20000 10000 0 80000 70000 60000 50000 40000 30000 20000 10000 0 30000 26250 22500 18750 15000 11250 7500 3750 0 30000 26250 22500 18750 15000 11250 7500 3750 0 30000 26250 22500 18750 15000 11250 7500 3750 0 30000 26250 22500 18750 15000 11250 7500 3750 0 30000 26250 22500 18750 15000 11250 7500 3750 0 30000 26250 22500 18750 15000 11250 7500 3750 0 30000 26250 22500 18750 15000 11250 7500 3750 0 30000 26250 22500 18750 15000 11250 7500 3750 0 30000 26250 22500 18750 15000 11250 7500 3750 0 30000 26250 22500 18750 15000 11250 7500 3750 0 80000 70000 60000 50000 40000 30000 20000 10000 0 80000 70000 60000 50000 40000 30000 20000 10000 0 80000 70000 60000 50000 40000 30000 20000 10000 0 80000 70000 60000 50000 40000 30000 20000 10000 0 80000 70000 60000 50000 40000 30000 20000 10000 0 80000 70000 60000 50000 40000 30000 20000 10000 0 30000 26250 22500 18750 15000 11250 7500 3750 0 30000 26250 22500 18750 15000 11250 7500 3750 0 30000 26250 22500 18750 15000 11250 7500 3750 0 30000 26250 22500 18750 15000 11250 7500 3750 0 30000 26250 22500 18750 15000 11250 7500 3750 0 30000 26250 22500 18750 15000 11250 7500 3750 0 30000 26250 22500 18750 15000 11250 7500 3750 0 30000 26250 22500 18750 15000 11250 7500 3750 0 30000 26250 22500 18750 15000 11250 7500 3750 0 30000 26250 22500 18750 15000 11250 7500 3750 0 80000 70000 60000 50000 40000 30000 20000 10000 0 80000 70000 60000 50000 40000 30000 20000 10000 0 80000 70000 60000 50000 40000 30000 20000 10000 0 80000 70000 60000 50000 40000 30000 20000 10000 0 80000 70000 60000 50000 40000 30000 20000 10000 0 80000 70000 60000 50000 40000 30000 20000 10000 0 30000 26250 22500 18750 15000 11250 7500 3750 0 30000 26250 22500 18750 15000 11250 7500 3750 0 30000 26250 22500 18750 15000 11250 7500 3750 0 30000 26250 22500 18750 15000 11250 7500 3750 0 30000 26250 22500 18750 15000 11250 7500 3750 0 30000 26250 22500 18750 15000 11250 7500 3750 0 30000 26250 22500 18750 15000 11250 7500 3750 0 30000 26250 22500 18750 15000 11250 7500 3750 0 30000 26250 22500 18750 15000 11250 7500 3750 0 30000 26250 22500 18750 15000 11250 7500 3750 0 80000 70000 60000 50000 40000 30000 7500 10000 0 80000 70000 60000 50000 40000 30000 20000 10000 0 20000 70000 60000 50000 10000 30000 20000 2500 0 20000 17500 15000 12500 10000 7500 5000 2500 0 20000 17500 15000 12500 10000 7500 5000 2500 0 20000 17500 15000 12500 10000 7500 5000 2500 0 30000 26250 22500 18750 15000 11250 7500 3750 0 30000 26250 22500 18750 15000 11250 7500 3750 0 30000 26250 22500 18750 15000 11250 7500 3750 0 30000 26250 22500 18750 15000 11250 7500 3750 0 30000 26250 22500 18750 15000 11250 7500 3750 0 30000 26250 22500 18750 15000 11250 7500 3750 0 30000 26250 22500 18750 15000 11250 7500 3750 0 30000 26250 22500 18750 15000 11250 7500 3750 0 30000 26250 22500 18750 15000 11250 7500 3750 0 30000 26250 22500 18750 15000 11250 7500 3750 0 80000 70000 60000 50000 40000 30000 20000 10000 0 80000 70000 60000 50000 40000 30000 20000 10000 0 20000 70000 60000 50000 10000 30000 20000 2500 0 20000 17500 15000 12500 10000 7500 5000 2500 0 20000 17500 15000 12500 10000 7500 5000 2500 0 20000 17500 15000 12500 10000 7500 5000 2500 0 30000 26250 22500 18750 15000 11250 7500 3750 0 30000 26250 22500 18750 15000 11250 7500 3750 0 30000 26250 22500 18750 15000 11250 7500 3750 0 40000 35000 30000 25000 20000 15000 10000 5000 0 40000 35000 30000 25000 20000 15000 10000 5000 0 40000 35000 30000 25000 20000 15000 10000 5000 0 30000 26250 22500 18750 15000 11250 7500 3750 0 30000 26250 22500 18750 15000 11250 7500 3750 0 30000 26250 22500 18750 15000 11250 7500 3750 0 30000 26250 22500 18750 15000 11250 7500 3750 0 80000 70000 60000 50000 40000 30000 20000 10000 0 80000 70000 60000 50000 40000 30000 20000 10000 0 80000 70000 60000 50000 40000 30000 20000 10000 0 20000 17500 15000 12500 10000 7500 5000 2500 0 20000 17500 15000 12500 10000 7500 5000 2500 0 20000 17500 15000 12500 10000 7500 5000 2500 0 30000 26250 22500 18750 15000 11250 7500 3750 0 30000 26250 22500 18750 15000 11250 7500 3750 0 30000 26250 22500 18750 15000 11250 7500 3750 0 40000 35000 30000 25000 20000 15000 10000 5000 0 40000 35000 30000 25000 20000 15000 10000 5000 0 40000 35000 30000 25000 20000 15000 10000 5000 0 30000 26250 22500 18750 15000 11250 7500 3750 0 30000 26250 22500 18750 15000 11250 7500 3750 0 30000 26250 22500 18750 15000 11250 7500 3750 0 30000 26250 22500 18750 15000 11250 7500 3750 0 80000 70000 22500 50000 40000 30000 7500 10000 0 80000 70000 60000 50000 40000 30000 20000 10000 0 80000 70000 60000 50000 40000 30000 20000 10000 0 20000 17500 15000 12500 10000 7500 5000 2500 0 20000 17500 15000 12500 10000 7500 5000 2500 0 20000 17500 15000 12500 10000 7500 5000 2500 0 30000 26250 22500 18750 15000 11250 7500 3750 0 30000 26250 22500 18750 15000 11250 7500 3750 0 30000 26250 22500 18750 15000 11250 7500 3750 0 40000 35000 30000 25000 20000 15000 10000 5000 0 40000 35000 30000 25000 20000 15000 10000 5000 0 40000 35000 30000 25000 20000 15000 10000 5000 0 30000 26250 22500 18750 15000 11250 7500 3750 0 30000 26250 22500 18750 15000 11250 7500 3750 0 30000 26250 22500 18750 15000 11250 7500 3750 0 30000 26250 22500 18750 15000 11250 7500 3750 0 80000 70000 60000 50000 40000 30000 20000 10000 0 80000 70000 60000 50000 40000 30000 20000 10000 0 80000 70000 60000 50000 10000 30000 20000 2500 0 20000 17500 15000 12500 10000 7500 5000 2500 0 20000 17500 15000 12500 10000 7500 5000 2500 0 20000 17500 15000 12500 10000 7500 5000 2500 0 30000 26250 22500 18750 15000 11250 7500 3750 0 30000 26250 22500 18750 15000 11250 7500 3750 0 30000 26250 22500 18750 15000 11250 7500 3750 0 40000 35000 30000 25000 20000 15000 10000 5000 0 40000 35000 30000 25000 20000 15000 10000 5000 0 40000 35000 30000 25000 20000 15000 10000 5000 0 30000 26250 22500 18750 15000 11250 7500 3750 0 30000 26250 22500 18750 15000 11250 7500 3750 0 30000 26250 22500 18750 15000 11250 7500 3750 0 30000 26250 22500 18750 15000 11250 7500 3750 0 80000 70000 22500 50000 40000 30000 20000 10000 0 80000 70000 60000 50000 40000 30000 20000 10000 0 20000 70000 60000 50000 40000 30000 20000 2500 0 20000 17500 15000 12500 10000 7500 5000 2500 0 20000 17500 15000 12500 10000 7500 5000 2500 0 20000 17500 15000 12500 10000 7500 5000 2500 0 30000 26250 22500 18750 15000 11250 7500 3750 0 30000 26250 22500 18750 15000 11250 7500 3750 0 30000 26250 22500 18750 15000 11250 7500 3750 0 30000 26250 22500 18750 15000 11250 7500 3750 0 30000 26250 22500 18750 15000 11250 7500 3750 0 30000 26250 22500 18750 15000 11250 7500 3750 0 30000 26250 22500 18750 15000 11250 7500 3750 0 30000 26250 22500 18750 15000 11250 7500 3750 0 30000 26250 22500 18750 15000 11250 7500 3750 0 30000 26250 22500 18750 15000 11250 7500 3750 0 80000 70000 60000 50000 40000 30000 20000 10000 0 80000 70000 60000 50000 40000 30000 20000 10000 0 20000 70000 15000 50000 40000 30000 20000 2500 0 20000 17500 15000 12500 10000 7500 5000 2500 0 20000 17500 15000 12500 10000 7500 5000 2500 0 20000 17500 15000 12500 10000 7500 5000 2500 0 30000 26250 22500 18750 15000 11250 7500 3750 0 30000 26250 22500 18750 15000 11250 7500 3750 0 30000 26250 22500 18750 15000 11250 7500 3750 0 30000 26250 22500 18750 15000 11250 7500 3750 0 30000 26250 22500 18750 15000 11250 7500 3750 0 30000 26250 22500 18750 15000 11250 7500 3750 0 30000 26250 22500 18750 15000 11250 7500 3750 0 30000 26250 22500 18750 15000 11250 7500 3750 0 30000 26250 22500 18750 15000 11250 7500 3750 0 30000 26250 22500 18750 15000 11250 7500 3750 0 80000 70000 60000 50000 40000 30000 7500 10000 0 80000 70000 60000 50000 40000 30000 20000 10000 0 80000 70000 60000 50000 40000 30000 20000 2500 0 20000 17500 15000 12500 10000 7500 5000 2500 0 20000 17500 15000 12500 10000 7500 5000 2500 0 20000 17500 15000 12500 10000 7500 5000 2500 0 30000 26250 22500 18750 15000 11250 7500 3750 0 30000 26250 22500 18750 15000 11250 7500 3750 0 30000 26250 22500 18750 15000 11250 7500 3750 0 30000 26250 22500 18750 15000 11250 7500 3750 0 30000 26250 22500 18750 15000 11250 7500 3750 0 30000 26250 22500 18750 15000 11250 7500 3750 0 30000 26250 22500 18750 15000 11250 7500 3750 0 30000 26250 22500 18750 15000 11250 7500 3750 0 30000 26250 22500 18750 15000 11250 7500 3750 0 30000 26250 22500 18750 15000 11250 7500 3750 0 80000 70000 60000 50000 40000 30000 20000 10000 0 80000 70000 60000 50000 40000 30000 20000 10000 0 80000 70000 60000 50000 40000 30000 20000 10000 0 100000 87500 75000 62500 50000 37500 25000 12500 0 100000 87500 75000 62500 50000 37500 25000 12500 0 100000 87500 75000 62500 50000 37500 25000 12500 0 30000 26250 22500 18750 15000 11250 7500 3750 0 30000 26250 22500 18750 15000 11250 7500 3750 0 30000 26250 22500 18750 15000 11250 7500 3750 0 30000 26250 22500 18750 15000 11250 7500 3750 0 30000 26250 22500 18750 15000 11250 7500 3750 0 30000 26250 22500 18750 15000 11250 7500 3750 0 30000 26250 22500 18750 15000 11250 7500 3750 0 30000 26250 22500 18750 15000 11250 7500 3750 0 30000 26250 22500 18750 15000 11250 7500 3750 0 30000 26250 22500 18750 15000 11250 7500 3750 0 80000 70000 60000 50000 40000 30000 20000 10000 0 80000 70000 60000 50000 40000 30000 20000 10000 0 80000 70000 60000 50000 40000 30000 20000 10000 0 100000 87500 75000 62500 50000 37500 25000 12500 0 100000 87500 75000 62500 50000 37500 25000 12500 0 100000 87500 75000 62500 50000 37500 25000 12500 0 30000 26250 22500 18750 15000 11250 7500 3750 0 30000 26250 22500 18750 15000 11250 7500 3750 0 30000 26250 22500 18750 15000 11250 7500 3750 0 30000 26250 22500 18750 15000 11250 7500 3750 0 30000 26250 22500 18750 15000 11250 7500 3750 0 30000 26250 22500 18750 15000 11250 7500 3750 0 30000 26250 22500 18750 15000 11250 7500 3750 0 30000 26250 22500 18750 15000 11250 7500 3750 0 30000 26250 22500 18750 15000 11250 7500 3750 0 30000 26250 22500 18750 15000 11250 7500 3750 0 80000 70000 60000 50000 40000 30000 20000 10000 0 80000 70000 60000 50000 40000 30000 20000 10000 0 100000 70000 60000 50000 50000 30000 20000 12500 0 100000 87500 75000 62500 50000 37500 25000 12500 0 100000 87500 75000 62500 50000 37500 25000 12500 0 100000 87500 75000 62500 50000 37500 25000 12500 0 30000 26250 22500 18750 15000 11250 7500 3750 0 30000 26250 22500 18750 15000 11250 7500 3750 0 30000 26250 22500 18750 15000 11250 7500 3750 0 30000 26250 22500 18750 15000 11250 7500 3750 0 30000 26250 22500 18750 15000 11250 7500 3750 0 30000 26250 22500 18750 15000 11250 7500 3750 0 30000 26250 22500 18750 15000 11250 7500 3750 0 30000 26250 22500 18750 15000 11250 7500 3750 0 30000 26250 22500 18750 15000 11250 7500 3750 0 30000 26250 22500 18750 15000 11250 7500 3750 0 80000 70000 60000 50000 40000 30000 20000 10000 0 80000 70000 60000 50000 40000 30000 20000 10000 0 80000 70000 60000 50000 40000 30000 20000 12500 0 100000 87500 75000 62500 50000 37500 25000 12500 0 100000 87500 75000 62500 50000 37500 25000 12500 0 100000 87500 75000 62500 50000 37500 25000 12500 0 30000 26250 22500 18750 15000 11250 7500 3750 0 30000 26250 22500 18750 15000 11250 7500 3750 0 30000 26250 22500 18750 15000 11250 7500 3750 0 30000 26250 22500 18750 15000 11250 7500 3750 0 30000 26250 22500 18750 15000 11250 7500 3750 0 30000 26250 22500 18750 15000 11250 7500 3750 0 30000 26250 22500 18750 15000 11250 7500 3750 0 30000 26250 22500 18750 15000 11250 7500 3750 0 30000 26250 22500 18750 15000 11250 7500 3750 0 30000 26250 22500 18750 15000 11250 7500 3750 0 80000 70000 60000 50000 40000 30000 20000 10000 0 80000 70000 60000 50000 40000 30000 20000 10000 0 80000 70000 60000 50000 40000 30000 20000 12500 0 100000 87500 75000 62500 50000 37500 25000 12500 0 100000 87500 75000 62500 50000 37500 25000 12500 0 100000 87500 75000 62500 50000 37500 25000 12500 0 30000 26250 22500 18750 15000 11250 7500 3750 0 30000 26250 22500 18750 15000 11250 7500 3750 0 30000 26250 22500 18750 15000 11250 7500 3750 0 30000 26250 22500 18750 15000 11250 7500 3750 0 30000 26250 22500 18750 15000 11250 7500 3750 0 30000 26250 22500 18750 15000 11250 7500 3750 0 30000 26250 22500 18750 15000 11250 7500 3750 0 30000 26250 22500 18750 15000 11250 7500 3750 0 30000 26250 22500 18750 15000 11250 7500 3750 0 30000 26250 22500 18750 15000 11250 7500 3750 0 80000 70000 60000 50000 15000 30000 7500 10000 0 80000 70000 60000 50000 40000 30000 20000 10000 0 80000 70000 60000 50000 40000 30000 20000 12500 0 100000 87500 75000 62500 50000 37500 25000 12500 0 100000 87500 75000 62500 50000 37500 25000 12500 0 100000 87500 75000 62500 50000 37500 25000 12500 0 30000 26250 22500 18750 15000 11250 7500 3750 0 30000 26250 22500 18750 15000 11250 7500 3750 0 30000 26250 22500 18750 15000 11250 7500 3750 0 30000 26250 22500 18750 15000 11250 7500 3750 0 30000 26250 22500 18750 15000 11250 7500 3750 0 30000 26250 22500 18750 15000 11250 7500 3750 0 30000 26250 22500 18750 15000 11250 7500 3750 0 30000 26250 22500 18750 15000 11250 7500 3750 0 30000 26250 22500 18750 15000 11250 7500 3750 0 30000 26250 22500 18750 15000 11250 7500 3750 0 80000 70000 60000 50000 40000 30000 20000 10000 0 80000 70000 60000 50000 40000 30000 20000 10000 0 80000 70000 60000 50000 40000 30000 20000 12500 0 100000 87500 75000 62500 50000 37500 25000 12500 0 100000 87500 75000 62500 50000 37500 25000 12500 0 100000 87500 75000 62500 50000 37500 25000 12500 0 30000 26250 22500 18750 15000 11250 7500 3750 0 30000 26250 22500 18750 15000 11250 7500 3750 0 30000 26250 22500 18750 15000 11250 7500 3750 0 30000 26250 22500 18750 15000 11250 7500 3750 0 30000 26250 22500 18750 15000 11250 7500 3750 0 30000 26250 22500 18750 15000 11250 7500 3750 0 30000 26250 22500 18750 15000 11250 7500 3750 0 30000 26250 22500 18750 15000 11250 7500 3750 0 30000 26250 22500 18750 15000 11250 7500 3750 0 30000 26250 22500 18750 15000 11250 7500 3750 0 80000 70000 60000 50000 40000 30000 20000 10000 0 80000 70000 60000 50000 40000 30000 20000 10000 0 100000 70000 60000 50000 40000 30000 20000 12500 0 100000 87500 75000 62500 50000 37500 25000 12500 0 100000 87500 75000 62500 50000 37500 25000 12500 0 100000 87500 75000 62500 50000 37500 25000 12500 0 30000 26250 22500 18750 15000 11250 7500 3750 0 30000 26250 22500 18750 15000 11250 7500 3750 0 30000 26250 22500 18750 15000 11250 7500 3750 0 30000 26250 22500 18750 15000 11250 7500 3750 0 30000 26250 22500 18750 15000 11250 7500 3750 0 30000 26250 22500 18750 15000 11250 7500 3750 0 30000 26250 22500 18750 15000 11250 7500 3750 0 30000 26250 22500 18750 15000 11250 7500 3750 0 30000 26250 22500 18750 15000 11250 7500 3750 0 30000 26250 22500 18750 15000 11250 7500 3750 0 80000 70000 60000 50000 40000 30000 20000 10000 0 80000 70000 60000 50000 40000 30000 20000 10000 0 100000 70000 75000 50000 40000 30000 20000 12500 0 100000 87500 75000 62500 50000 37500 25000 12500 0 100000 87500 75000 62500 50000 37500 25000 12500 0 100000 87500 75000 62500 50000 37500 25000 12500 0 30000 26250 22500 18750 15000 11250 7500 3750 0 30000 26250 22500 18750 15000 11250 7500 3750 0 30000 26250 22500 18750 15000 11250 7500 3750 0 30000 26250 22500 18750 15000 11250 7500 3750 0 30000 26250 22500 18750 15000 11250 7500 3750 0 30000 26250 22500 18750 15000 11250 7500 3750 0 30000 26250 22500 18750 15000 11250 7500 3750 0 30000 26250 22500 18750 15000 11250 7500 3750 0 30000 26250 22500 18750 15000 11250 7500 3750 0 30000 26250 22500 18750 15000 11250 7500 3750 0 80000 70000 60000 50000 40000 30000 20000 10000 0 80000 70000 60000 50000 40000 30000 20000 10000 0 80000 70000 60000 50000 40000 30000 20000 10000 0 80000 70000 60000 50000 40000 30000 20000 10000 0 80000 70000 60000 50000 40000 30000 20000 10000 0 80000 70000 60000 50000 40000 30000 20000 10000 0 30000 26250 22500 18750 15000 11250 7500 3750 0 30000 26250 22500 18750 15000 11250 7500 3750 0 30000 26250 22500 18750 15000 11250 7500 3750 0 30000 26250 22500 18750 15000 11250 7500 3750 0 30000 26250 22500 18750 15000 11250 7500 3750 0 30000 26250 22500 18750 15000 11250 7500 3750 0 30000 26250 22500 18750 15000 11250 7500 3750 0 30000 26250 22500 18750 15000 11250 7500 3750 0 30000 26250 22500 18750 15000 11250 7500 3750 0 30000 26250 22500 18750 15000 11250 7500 3750 0 30000 70000 22500 50000 40000 30000 20000 10000 0 80000 70000 60000 50000 40000 30000 20000 10000 0 80000 70000 60000 50000 40000 30000 20000 10000 0 80000 70000 60000 50000 40000 30000 20000 10000 0 80000 70000 60000 50000 40000 30000 20000 10000 0 80000 70000 60000 50000 40000 30000 20000 10000 0 30000 26250 22500 18750 15000 11250 7500 3750 0 30000 26250 22500 18750 15000 11250 7500 3750 0 30000 26250 22500 18750 15000 11250 7500 3750 0 30000 26250 22500 18750 15000 11250 7500 3750 0 30000 26250 22500 18750 15000 11250 7500 3750 0 30000 26250 22500 18750 15000 11250 7500 3750 0 30000 26250 22500 18750 15000 11250 7500 3750 0 30000 26250 22500 18750 15000 11250 7500 3750 0 30000 26250 22500 18750 15000 11250 7500 3750 0 30000 26250 22500 18750 15000 11250 7500 3750 0 80000 70000 60000 50000 40000 30000 20000 10000 0 80000 70000 60000 50000 40000 30000 20000 10000 0 80000 70000 60000 50000 40000 30000 20000 10000 0 80000 70000 60000 50000 40000 30000 20000 10000 0 80000 70000 60000 50000 40000 30000 20000 10000 0 80000 70000 60000 50000 40000 30000 20000 10000 0 30000 26250 22500 18750 15000 11250 7500 3750 0 30000 26250 22500 18750 15000 11250 7500 3750 0 30000 26250 22500 18750 15000 11250 7500 3750 0 30000 26250 22500 18750 15000 11250 7500 3750 0 30000 26250 22500 18750 15000 11250 7500 3750 0 30000 26250 22500 18750 15000 11250 7500 3750 0 30000 26250 22500 18750 15000 11250 7500 3750 0 30000 26250 22500 18750 15000 11250 7500 3750 0 30000 26250 22500 18750 15000 11250 7500 3750 0 30000 26250 22500 18750 15000 11250 7500 3750 0 80000 70000 60000 50000 40000 30000 20000 10000 0 80000 70000 60000 50000 40000 30000 20000 10000 0 80000 70000 60000 50000 40000 30000 20000 10000 0 80000 70000 60000 50000 40000 30000 20000 10000 0 80000 70000 60000 50000 40000 30000 20000 10000 0 80000 70000 60000 50000 40000 30000 20000 10000 0 30000 26250 22500 18750 15000 11250 7500 3750 0 30000 26250 22500 18750 15000 11250 7500 3750 0 30000 26250 22500 18750 15000 11250 7500 3750 0 30000 26250 22500 18750 15000 11250 7500 3750 0 30000 26250 22500 18750 15000 11250 7500 3750 0 30000 26250 22500 18750 15000 11250 7500 3750 0 30000 26250 22500 18750 15000 11250 7500 3750 0 30000 26250 22500 18750 15000 11250 7500 3750 0 30000 26250 22500 18750 15000 11250 7500 3750 0 30000 26250 22500 18750 15000 11250 7500 3750 0 80000 70000 60000 50000 40000 30000 20000 10000 0 80000 70000 60000 50000 40000 30000 20000 10000 0 80000 70000 60000 50000 40000 30000 20000 10000 0 80000 70000 60000 50000 40000 30000 20000 10000 0 80000 70000 60000 50000 40000 30000 20000 10000 0 80000 70000 60000 50000 40000 30000 20000 10000 0 30000 26250 22500 18750 15000 11250 7500 3750 0 30000 26250 22500 18750 15000 11250 7500 3750 0 30000 26250 22500 18750 15000 11250 7500 3750 0 30000 26250 22500 18750 15000 11250 7500 3750 0 30000 26250 22500 18750 15000 11250 7500 3750 0 30000 26250 22500 18750 15000 11250 7500 3750 0 30000 26250 22500 18750 15000 11250 7500 3750 0 30000 26250 22500 18750 15000 11250 7500 3750 0 30000 26250 22500 18750 15000 11250 7500 3750 0 30000 26250 22500 18750 15000 11250 7500 3750 0 80000 70000 60000 50000 40000 30000 7500 10000 0 80000 70000 60000 50000 40000 30000 20000 10000 0 80000 70000 60000 50000 40000 30000 20000 10000 0 80000 70000 60000 50000 40000 30000 20000 10000 0 80000 70000 60000 50000 40000 30000 20000 10000 0 80000 70000 60000 50000 40000 30000 20000 10000 0 30000 26250 22500 18750 15000 11250 7500 3750 0 30000 26250 22500 18750 15000 11250 7500 3750 0 30000 26250 22500 18750 15000 11250 7500 3750 0 30000 26250 22500 18750 15000 11250 7500 3750 0 30000 26250 22500 18750 15000 11250 7500 3750 0 30000 26250 22500 18750 15000 11250 7500 3750 0 30000 26250 22500 18750 15000 11250 7500 3750 0 30000 26250 22500 18750 15000 11250 7500 3750 0 30000 26250 22500 18750 15000 11250 7500 3750 0 30000 26250 22500 18750 15000 11250 7500 3750 0 80000 70000 60000 50000 40000 30000 20000 10000 0 80000 70000 60000 50000 40000 30000 20000 10000 0 80000 70000 60000 50000 40000 30000 20000 10000 0 80000 70000 60000 50000 40000 30000 20000 10000 0 80000 70000 60000 50000 40000 30000 20000 10000 0 80000 70000 60000 50000 40000 30000 20000 10000 0 
</DataArray>
<DataArray Name="Depth wrt reference" format="ascii" type="Float64">