<?xml version="1.0"?>
<VTKFile byte_order="LittleEndian" type="UnstructuredGrid" version="0.1">
<UnstructuredGrid>
<Piece NumberOfCells="625" NumberOfPoints="1352">
<PointData>
<DataArray Name="Depth" format="ascii" type="Float64">
100000 0 100000 0 100000 0 100000 0 100000 0 100000 0 100000 0 100000 0 100000 0 100000 0 100000 0 100000 0 100000 0 100000 0 100000 0 100000 0 100000 0 100000 0 100000 0 100000 0 100000 0 100000 0 100000 0 100000 0 100000 0 100000 0 100000 0 100000 0 100000 0 100000 0 100000 0 100000 0 100000 0 100000 0 100000 0 100000 0 100000 0 100000 0 100000 0 100000 0 100000 0 100000 0 100000 0 100000 0 100000 0 100000 0 100000 0 100000 0 100000 0 100000 0 100000 0 100000 0 100000 0 100000 0 100000 0 100000 0 100000 0 100000 0 100000 0 100000 0 100000 0 100000 0 100000 0 100000 0 100000 0 100000 0 100000 0 100000 0 100000 0 100000 0 100000 0 100000 0 100000 0 100000 0 100000 0 100000 0 100000 0 100000 0 100000 0 100000 0 100000 0 100000 0 100000 0 100000 0 100000 0 100000 0 100000 0 100000 0 100000 0 100000 0 100000 0 100000 0 100000 0 100000 0 100000 0 100000 0 100000 0 100000 0 100000 0 100000 0 100000 0 100000 0 100000 0 100000 0 100000 0 100000 0 100000 0 100000 0 100000 0 100000 0 100000 0 100000 0 100000 0 100000 0 100000 0 100000 0 100000 0 100000 0 100000 0 100000 0 100000 0 100000 0 100000 0 100000 0 100000 0 100000 0 100000 0 100000 0 100000 0 100000 0 100000 0 100000 0 100000 0 100000 0 100000 0 100000 0 100000 0 100000 0 100000 0 100000 0 100000 0 100000 0 100000 0 100000 0 100000 0 100000 0 100000 0 100000 0 100000 0 100000 0 100000 0 100000 0 100000 0 100000 0 100000 0 100000 0 100000 0 100000 0 100000 0 100000 0 100000 0 100000 0 100000 0 100000 0 100000 0 100000 0 100000 0 100000 0 100000 0 100000 0 100000 0 100000 0 100000 0 100000 0 100000 0 100000 0 100000 0 100000 0 100000 0 100000 0 100000 0 100000 0 100000 0 100000 0 100000 0 100000 0 100000 0 100000 0 100000 0 100000 0 100000 0 100000 0 100000 0 100000 0 100000 0 100000 0 100000 0 100000 0 100000 0 100000 0 100000 0 100000 0 100000 0 100000 0 100000 0 100000 0 100000 0 100000 0 100000 0 100000 0 100000 0 100000 0 100000 0 100000 0 100000 0 100000 0 100000 0 100000 0 100000 0 100000 0 100000 0 100000 0 100000 0 100000 0 100000 0 100000 0 100000 0 100000 0 100000 0 100000 0 100000 0 100000 0 100000 0 100000 0 100000 0 100000 0 100000 0 100000 0 100000 0 100000 0 100000 0 100000 0 100000 0 100000 0 100000 0 100000 0 100000 0 100000 0 100000 0 100000 0 100000 0 100000 0 100000 0 100000 0 100000 0 100000 0 100000 0 100000 0 100000 0 100000 0 100000 0 100000 0 100000 0 100000 0 100000 0 100000 0 100000 0 100000 0 100000 0 100000 0 100000 0 100000 0 100000 0 100000 0 100000 0 100000 0 100000 0 100000 0 100000 0 100000 0 100000 0 100000 0 100000 0 100000 0 100000 0 100000 0 100000 0 100000 0 100000 0 100000 0 100000 0 100000 0 100000 0 100000 0 100000 0 100000 0 100000 0 100000 0 100000 0 100000 0 100000 0 100000 0 100000 0 100000 0 100000 0 100000 0 100000 0 100000 0 100000 0 100000 0 100000 0 100000 0 100000 0 100000 0 100000 0 100000 0 100000 0 100000 0 100000 0 100000 0 100000 0 100000 0 100000 0 100000 0 100000 0 100000 0 100000 0 100000 0 100000 0 100000 0 100000 0 100000 0 100000 0 100000 0 100000 0 100000 0 100000 0 100000 0 100000 0 100000 0 100000 0 100000 0 100000 0 100000 0 100000 0 100000 0 100000 0 100000 0 100000 0 100000 0 100000 0 100000 0 100000 0 100000 0 100000 0 100000 0 100000 0 100000 0 100000 0 100000 0 100000 0 100000 0 100000 0 100000 0 100000 0 100000 0 100000 0 100000 0 100000 0 100000 0 100000 0 100000 0 100000 0 100000 0 100000 0 100000 0 100000 0 100000 0 100000 0 100000 0 100000 0 100000 0 100000 0 100000 0 100000 0 100000 0 100000 0 100000 0 100000 0 100000 0 100000 0 100000 0 100000 0 100000 0 100000 0 100000 0 100000 0 100000 0 100000 0 100000 0 100000 0 100000 0 100000 0 100000 0 100000 0 100000 0 100000 0 100000 0 100000 0 100000 0 100000 0 100000 0 100000 0 100000 0 100000 0 100000 0 100000 0 100000 0 100000 0 100000 0 100000 0 100000 0 100000 0 100000 0 100000 0 100000 0 100000 0 100000 0 100000 0 100000 0 100000 0 100000 0 100000 0 100000 0 100000 0 100000 0 100000 0 100000 0 100000 0 100000 0 100000 0 100000 0 100000 0 100000 0 100000 0 100000 0 100000 0 100000 0 100000 0 100000 0 100000 0 100000 0 100000 0 100000 0 100000 0 100000 0 100000 0 100000 0 100000 0 100000 0 100000 0 100000 0 100000 0 100000 0 100000 0 100000 0 100000 0 100000 0 100000 0 100000 0 100000 0 100000 0 100000 0 100000 0 100000 0 100000 0 100000 0 100000 0 100000 0 100000 0 100000 0 100000 0 100000 0 100000 0 100000 0 100000 0 100000 0 100000 0 100000 0 100000 0 100000 0 100000 0 100000 0 100000 0 100000 0 100000 0 100000 0 100000 0 100000 0 100000 0 100000 0 100000 0 100000 0 100000 0 100000 0 100000 0 100000 0 100000 0 100000 0 100000 0 100000 0 100000 0 100000 0 100000 0 100000 0 100000 0 100000 0 100000 0 100000 0 100000 0 100000 0 100000 0 100000 0 100000 0 100000 0 100000 0 100000 0 100000 0 100000 0 100000 0 100000 0 100000 0 100000 0 100000 0 100000 0 100000 0 100000 0 100000 0 100000 0 100000 0 100000 0 100000 0 100000 0 100000 0 100000 0 100000 0 100000 0 100000 0 100000 0 100000 0 100000 0 100000 0 100000 0 100000 0 100000 0 100000 0 100000 0 100000 0 100000 0 100000 0 100000 0 100000 0 100000 0 100000 0 100000 0 100000 0 100000 0 100000 0 100000 0 100000 0 100000 0 100000 0 100000 0 100000 0 100000 0 100000 0 100000 0 100000 0 100000 0 100000 0 100000 0 100000 0 100000 0 100000 0 100000 0 100000 0 100000 0 100000 0 100000 0 100000 0 100000 0 100000 0 100000 0 100000 0 100000 0 100000 0 100000 0 100000 0 100000 0 100000 0 100000 0 100000 0 100000 0 100000 0 100000 0 100000 0 100000 0 100000 0 100000 0 100000 0 100000 0 100000 0 100000 0 100000 0 100000 0 100000 0 100000 0 100000 0 100000 0 100000 0 100000 0 100000 0 100000 0 100000 0 100000 0 100000 0 100000 0 100000 0 100000 0 100000 0 100000 0 100000 0 100000 0 100000 0 100000 0 100000 0 100000 0 100000 0 100000 0 100000 0 100000 0 100000 0 100000 0 100000 0 100000 0 100000 0 100000 0 100000 0 100000 0 100000 0 100000 0 100000 0 100000 0 100000 0 100000 0 100000 0 100000 0 100000 0 100000 0 100000 0 100000 0 100000 0 100000 0 100000 0 100000 0 100000 0 100000 0 100000 0 100000 0 100000 0 100000 0 100000 0 100000 0 100000 0 100000 0 100000 0 
</DataArray>
<DataArray Name="Temperature" format="ascii" type="Float64">
1644.56 1600 1644.56 1600 1644.56 1600 1644.56 1600 1644.56 1600 1644.56 1600 1644.56 1600 1644.56 1600 1644.56 1600 1644.56 1600 1644.56 1600 1644.56 1600 1644.56 1600 1644.56 1600 1644.56 1600 1644.56 1600 1644.56 1600 1644.56 1600 1644.56 1600 1644.56 1600 1644.56 1600 1644.56 1600 1644.56 1600 1644.56 1600 1644.56 1600 1644.56 1600 1644.56 1600 1644.56 1600 1644.56 1600 1644.56 1600 1644.56 1600 1644.56 1600 1644.56 1600 1644.56 1600 1644.56 1600 1644.56 1600 1644.56 1600 1644.56 1600 1644.56 1600 1644.56 1600 1644.56 1600 1644.56 1600 1644.56 1600 1644.56 1600 1644.56 1600 1644.56 1600 1644.56 1600 1644.56 1600 1644.56 1600 1644.56 1600 1644.56 1600 1644.56 1600 1644.56 1600 1644.56 1600 1644.56 1600 1644.56 1600 1644.56 1600 1644.56 1600 1644.56 1600 1644.56 1600 1644.56 1600 1644.56 1600 1644.56 1600 1644.56 1600 1644.56 1600 1644.56 1600 1644.56 1600 1644.56 1600 1644.56 1600 1644.56 1600 1644.56 1600 1644.56 1600 1644.56 1600 1644.56 1600 1644.56 1600 1644.56 1600 1644.56 1600 1644.56 1600 1644.56 1600 1644.56 1600 1644.56 1600 1644.56 1600 1644.56 1600 1644.56 1600 1644.56 1600 1644.56 1600 1644.56 1600 1644.56 1600 1644.56 1600 1644.56 1600 1644.56 1600 1644.56 1600 1644.56 1600 1644.56 1600 1644.56 1600 1644.56 1600 1644.56 1600 1644.56 1600 1644.56 1600 1644.56 1600 1644.56 1600 1644.56 1600 1644.56 1600 1644.56 1600 1644.56 1600 1644.56 1600 1644.56 1600 1644.56 1600 1644.56 1600 1644.56 1600 1644.56 1600 1644.56 1600 1644.56 1600 1644.56 1600 1644.56 1600 1644.56 1600 1644.56 1600 1644.56 1600 1644.56 1600 1644.56 1600 1644.56 1600 1644.56 1600 1644.56 1600 1644.56 1600 1644.56 1600 1644.56 1600 1644.56 1600 1644.56 1600 1644.56 1600 1644.56 1600 1644.56 1600 1644.56 1600 1644.56 1600 1644.56 1600 1644.56 1600 1644.56 1600 1644.56 1600 1644.56 1600 1644.56 1600 1644.56 1600 1644.56 1600 1644.56 1600 1644.56 1600 1644.56 1600 1644.56 1600 1644.56 1600 1644.56 1600 1644.56 1600 1644.56 1600 1644.56 1600 1644.56 1600 1644.56 1600 1644.56 1600 1644.56 1600 1644.56 1600 1644.56 1600 1644.56 1600 1644.56 1600 1644.56 1600 1644.56 1600 1644.56 1600 1644.56 1600 1644.56 1600 1644.56 1600 1644.56 1600 1644.56 1600 1644.56 1600 1644.56 1600 1644.56 1600 1644.56 1600 1644.56 1600 1644.56 1600 1644.56 1600 1644.56 1600 1644.56 1600 1644.56 1600 1644.56 1600 1644.56 1600 1644.56 1600 1644.56 1600 1644.56 1600 1644.56 1600 1644.56 1600 1644.56 1600 1644.56 1600 1644.56 1600 1644.56 1600 1644.56 1600 1644.56 1600 1644.56 1600 1644.56 1600 1644.56 1600 1644.56 1600 1644.56 1600 1644.56 1600 1644.56 1600 1644.56 1600 1644.56 1600 1644.56 1600 1644.56 1600 1644.56 1600 1644.56 1600 1644.56 1600 1644.56 1600 1644.56 1600 1644.56 1600 1644.56 1600 1644.56 1600 1644.56 1600 1644.56 1600 1644.56 1600 1644.56 1600 1644.56 1600 1644.56 1600 1644.56 1600 1644.56 1600 1644.56 1600 1644.56 1600 1644.56 1600 1644.56 1600 1644.56 1600 1644.56 1600 1644.56 1600 1644.56 1600 1644.56 1600 1644.56 1600 1644.56 1600 1644.56 1600 1644.56 1600 1644.56 1600 1644.56 1600 1644.56 1600 1644.56 1600 1644.56 1600 1644.56 1600 1644.56 1600 1644.56 1600 1644.56 1600 1644.56 1600 1644.56 1600 1644.56 1600 1644.56 1600 1644.56 1600 1644.56 1600 1644.56 1600 1644.56 1600 1644.56 1600 1644.56 1600 1644.56 1600 1644.56 1600 1644.56 1600 1644.56 1600 1644.56 1600 1644.56 1600 1644.56 1600 1644.56 1600 1644.56 1600 1644.56 1600 1644.56 1600 1644.56 1600 1644.56 1600 1644.56 1600 1644.56 1600 1644.56 1600 1644.56 1600 1644.56 1600 1644.56 1600 1644.56 1600 1644.56 1600 1644.56 1600 1644.56 1600 1644.56 1600 1644.56 1600 1644.56 1600 1644.56 1600 1644.56 1600 1644.56 1600 1644.56 1600 1644.56 1600 1644.56 1600 1644.56 1600 1644.56 1600 1644.56 1600 1644.56 1600 1644.56 1600 1644.56 1600 1644.56 1600 1644.56 1600 1644.56 1600 1644.56 1600 1644.56 1600 1644.56 1600 1644.56 1600 1644.56 1600 1644.56 1600 1644.56 1600 1644.56 1600 1644.56 1600 1644.56 1600 1644.56 1600 1644.56 1600 1644.56 1600 1644.56 1600 1644.56 1600 1644.56 1600 1644.56 1600 1644.56 1600 1644.56 1600 1644.56 1600 1644.56 1600 1644.56 1600 1644.56 1600 1644.56 1600 1644.56 1600 1644.56 1600 1644.56 1600 1644.56 1600 1644.56 1600 1644.56 1600 1644.56 1600 1644.56 1600 1644.56 1600 1644.56 1600 1644.56 1600 1644.56 1600 1644.56 1600 1644.56 1600 1644.56 1600 1644.56 1600 1644.56 1600 1644.56 1600 1644.56 1600 1644.56 1600 1644.56 1600 1644.56 1600 1644.56 1600 1644.56 1600 1644.56 1600 1644.56 1600 1644.56 1600 1644.56 1600 1644.56 1600 1644.56 1600 1644.56 1600 1644.56 1600 1644.56 1600 1644.56 1600 1644.56 1600 1644.56 1600 1644.56 1600 1644.56 1600 1644.56 1600 1644.56 1600 1644.56 1600 1644.56 1600 1644.56 1600 1644.56 1600 1644.56 1600 1644.56 1600 1644.56 1600 1644.56 1600 1644.56 1600 1644.56 1600 1644.56 1600 1644.56 1600 1644.56 1600 1644.56 1600 1644.56 1600 1644.56 1600 1644.56 1600 1644.56 1600 1644.56 1600 1644.56 1600 1644.56 1600 1644.56 1600 1644.56 1600 1644.56 1600 1644.56 1600 1644.56 1600 1644.56 1600 1644.56 1600 1644.56 1600 1644.56 1600 1644.56 1600 1644.56 1600 1644.56 1600 1644.56 1600 1644.56 1600 1644.56 1600 1644.56 1600 1644.56 1600 1644.56 1600 1644.56 1600 1644.56 1600 1644.56 1600 1644.56 1600 1644.56 1600 1644.56 1600 1644.56 1600 1644.56 1600 1644.56 1600 1644.56 1600 1644.56 1600 1644.56 1600 1644.56 1600 1644.56 1600 1644.56 1600 1644.56 1600 1644.56 1600 1644.56 1600 1644.56 1600 1644.56 1600 1644.56 1600 1644.56 1600 1644.56 1600 1644.56 1600 1644.56 1600 1644.56 1600 1644.56 1600 1644.56 1600 1644.56 1600 1644.56 1600 1644.56 1600 1644.56 1600 1644.56 1600 1644.56 1600 1644.56 1600 1644.56 1600 1644.56 1600 1644.56 1600 1644.56 1600 1644.56 1600 1644.56 1600 1644.56 1600 1644.56 1600 1644.56 1600 1644.56 1600 1644.56 1600 1644.56 1600 1644.56 1600 1644.56 1600 1644.56 1600 1644.56 1600 1644.56 1600 1644.56 1600 1644.56 1600 1644.56 1600 1644.56 1600 1644.56 1600 1644.56 1600 1644.56 1600 1644.56 1600 1644.56 1600 1644.56 1600 1644.56 1600 1644.56 1600 1644.56 1600 1644.56 1600 1644.56 1600 1644.56 1600 1644.56 1600 1644.56 1600 1644.56 1600 1644.56 1600 1644.56 1600 1644.56 1600 1644.56 1600 1644.56 1600 1644.56 1600 1644.56 1600 1644.56 1600 1644.56 1600 1644.56 1600 1644.56 1600 1644.56 1600 1644.56 1600 1644.56 1600 1644.56 1600 1644.56 1600 1644.56 1600 1644.56 1600 1644.56 1600 1644.56 1600 1644.56 1600 1644.56 1600 1644.56 1600 1644.56 1600 1644.56 1600 1644.56 1600 1644.56 1600 1644.56 1600 1644.56 1600 1644.56 1600 1644.56 1600 1644.56 1600 1644.56 1600 1644.56 1600 1644.56 1600 1644.56 1600 1644.56 1600 1644.56 1600 1644.56 1600 1644.56 1600 1644.56 1600 1644.56 1600 1644.56 1600 1644.56 1600 1644.56 1600 1644.56 1600 1644.56 1600 1644.56 1600 1644.56 1600 1644.56 1600 1644.56 1600 1644.56 1600 1644.56 1600 1644.56 1600 1644.56 1600 1644.56 1600 1644.56 1600 1644.56 1600 1644.56 1600 1644.56 1600 1644.56 1600 1644.56 1600 1644.56 1600 1644.56 1600 1644.56 1600 1644.56 1600 1644.56 1600 1644.56 1600 1644.56 1600 1644.56 1600 1644.56 1600 1644.56 1600 1644.56 1600 1644.56 1600 1644.56 1600 1644.56 1600 1644.56 1600 1644.56 1600 1644.56 1600 1644.56 1600 1644.56 1600 1644.56 1600 1644.56 1600 1644.56 1600 1644.56 1600 1644.56 1600 1644.56 1600 1644.56 1600 1644.56 1600 1644.56 1600 1644.56 1600 1644.56 1600 1644.56 1600 1644.56 1600 1644.56 1600 1644.56 1600 1644.56 1600 1644.56 1600 1644.56 1600 1644.56 1600 1644.56 1600 1644.56 1600 1644.56 1600 1644.56 1600 1644.56 1600 1644.56 1600 1644.56 1600 1644.56 1600 1644.56 1600 1644.56 1600 1644.56 1600 1644.56 1600 1644.56 1600 1644.56 1600 1644.56 1600 1644.56 1600 1644.56 1600 1644.56 1600 1644.56 1600 1644.56 1600 1644.56 1600 1644.56 1600 1644.56 1600 1644.56 1600 1644.56 1600 1644.56 1600 1644.56 1600 1644.56 1600 1644.56 1600 1644.56 1600 1644.56 1600 1644.56 1600 1644.56 1600 1644.56 1600 1644.56 1600 1644.56 1600 1644.56 1600 1644.56 1600 1644.56 1600 1644.56 1600 1644.56 1600 1644.56 1600 1644.56 1600 1644.56 1600 1644.56 1600 1644.56 1600 1644.56 1600 1644.56 1600 1644.56 1600 1644.56 1600 1644.56 1600 1644.56 1600 1644.56 1600 1644.56 1600 1644.56 1600 1644.56 1600 1644.56 1600 1644.56 1600 1644.56 1600 1644.56 1600 1644.56 1600 1644.56 1600 1644.56 1600 1644.56 1600 1644.56 1600 1644.56 1600 1644.56 1600 1644.56 1600 1644.56 1600 1644.56 1600 1644.56 1600 1644.56 1600 1644.56 1600 1644.56 1600 1644.56 1600 1644.56 1600 1644.56 1600 1644.56 1600 1644.56 1600 1644.56 1600 1644.56 1600 1644.56 1600 1644.56 1600 1644.56 1600 1644.56 1600 1644.56 1600 1644.56 1600 1644.56 1600 1644.56 1600 1644.56 1600 1644.56 1600 1644.56 1600 1644.56 1600 1644.56 1600 1644.56 1600 1644.56 1600 1644.56 1600 1644.56 1600 1644.56 1600 1644.56 1600 1644.56 1600 1644.56 1600 1644.56 1600 1644.56 1600 1644.56 1600 1644.56 1600 1644.56 1600 1644.56 1600 1644.56 1600 1644.56 1600 1644.56 1600 1644.56 1600 1644.56 1600 
</DataArray>
<DataArray Name="velocity" NumberOfComponents="3" format="ascii" type="Float64">