<?xml version="1.0"?>
<VTKFile byte_order="LittleEndian" type="UnstructuredGrid" version="0.1">
<UnstructuredGrid>
<Piece NumberOfCells="7700" NumberOfPoints="7881">
<PointData>
<DataArray Name="Depth wrt surface" format="ascii" type="Float64">
350000 350000 350000 350000 350000 350000 350000 350000 350000 350000 350000 350000 350000 350000 350000 350000 350000 350000 350000 350000 350000 350000 350000 350000 350000 350000 350000 350000 350000 350000 350000 350000 350000 350000 350000 350000 350000 350000 350000 350000 350000 350000 350000 350000 350000 350000 350000 350000 350000 350000 350000 350000 350000 350000 350000 350000 350000 350000 350000 350000 350000 350000 350000 350000 350000 350000 350000 350000 350000 350000 350000 350000 350000 350000 350000 350000 350000 350000 350000 350000 350000 350000 350000 350000 350000 350000 350000 350000 350000 350000 350000 350000 350000 350000 350000 350000 350000 350000 350000 350000 350000 350000 350000 350000 350000 350000 350000 350000 350000 350000 350000 345000 345000 345000 345000 345000 345000 345000 345000 345000 345000 345000 345000 345000 345000 345000 345000 345000 345000 345000 345000 345000 345000 345000 345000 345000 345000 345000 345000 345000 345000 345000 345000 345000 345000 345000 345000 345000 345000 345000 345000 345000 345000 345000 345000 345000 345000 345000 345000 345000 345000 345000 345000 345000 345000 345000 345000 345000 345000 345000 345000 345000 345000 345000 345000 345000 345000 345000 345000 345000 345000 345000 345000 345000 345000 345000 345000 345000 345000 345000 345000 345000 345000 345000 345000 345000 345000 345000 345000 345000 345000 345000 345000 345000 345000 345000 345000 345000 345000 345000 345000 345000 345000 345000 345000 345000 345000 345000 345000 345000 345000 345000 340000 340000 340000 340000 340000 340000 340000 340000 340000 340000 340000 340000 340000 340000 340000 340000 340000 340000 340000 340000 340000 340000 340000 340000 340000 340000 340000 340000 340000 340000 340000 340000 340000 340000 340000 340000 340000 340000 340000 340000 340000 340000 340000 340000 340000 340000 340000 340000 340000 340000 340000 340000 340000 340000 340000 340000 340000 340000 340000 340000 340000 340000 340000 340000 340000 340000 340000 340000 340000 340000 340000 340000 340000 340000 340000 340000 340000 340000 340000 340000 340000 340000 340000 340000 340000 340000 340000 340000 340000 340000 340000 340000 340000 340000 340000 340000 340000 340000 340000 340000 340000 340000 340000 340000 340000 340000 340000 340000 340000 340000 340000 335000 335000 335000 335000 335000 335000 335000 335000 335000 335000 335000 335000 335000 335000 335000 335000 335000 335000 335000 335000 335000 335000 335000 335000 335000 335000 335000 335000 335000 335000 335000 335000 335000 335000 335000 335000 335000 335000 335000 335000 335000 335000 335000 335000 335000 335000 335000 335000 335000 335000 335000 335000 335000 335000 335000 335000 335000 335000 335000 335000 335000 335000 335000 335000 335000 335000 335000 335000 335000 335000 335000 335000 335000 335000 335000 335000 335000 335000 335000 335000 335000 335000 335000 335000 335000 335000 335000 335000 335000 335000 335000 335000 335000 335000 335000 335000 335000 335000 335000 335000 335000 335000 335000 335000 335000 335000 335000 335000 335000 335000 335000 330000 330000 330000 330000 330000 330000 330000 330000 330000 330000 330000 330000 330000 330000 330000 330000 330000 330000 330000 330000 330000 330000 330000 330000 330000 330000 330000 330000 330000 330000 330000 330000 330000 330000 330000 330000 330000 330000 330000 330000 330000 330000 330000 330000 330000 330000 330000 330000 330000 330000 330000 330000 330000 330000 330000 330000 330000 330000 330000 330000 330000 330000 330000 330000 330000 330000 330000 330000 330000 330000 330000 330000 330000 330000 330000 330000 330000 330000 330000 330000 330000 330000 330000 330000 330000 330000 330000 330000 330000 330000 330000 330000 330000 330000 330000 330000 330000 330000 330000 330000 330000 330000 330000 330000 330000 330000 330000 330000 330000 330000 330000 325000 325000 325000 325000 325000 325000 325000 325000 325000 325000 325000 325000 325000 325000 325000 325000 325000 325000 325000 325000 325000 325000 325000 325000 325000 325000 325000 325000 325000 325000 325000 325000 325000 325000 325000 325000 325000 325000 325000 325000 325000 325000 325000 325000 325000 325000 325000 325000 325000 325000 325000 325000 325000 325000 325000 325000 325000 325000 325000 325000 325000 325000 325000 325000 325000 325000 325000 325000 325000 325000 325000 325000 325000 325000 325000 325000 325000 325000 325000 325000 325000 325000 325000 325000 325000 325000 325000 325000 325000 325000 325000 325000 325000 325000 325000 325000 325000 325000 325000 325000 325000 325000 325000 325000 325000 325000 325000 325000 325000 325000 325000 320000 320000 320000 320000 320000 320000 320000 320000 320000 320000 320000 320000 320000 320000 320000 320000 320000 320000 320000 320000 320000 320000 320000 320000 320000 320000 320000 320000 320000 320000 320000 320000 320000 320000 320000 320000 320000 320000 320000 320000 320000 320000 320000 320000 320000 320000 320000 320000 320000 320000 320000 320000 320000 320000 320000 320000 320000 320000 320000 320000 320000 320000 320000 320000 320000 320000 320000 320000 320000 320000 320000 320000 320000 320000 320000 320000 320000 320000 320000 320000 320000 320000 320000 320000 320000 320000 320000 320000 320000 320000 320000 320000 320000 320000 320000 320000 320000 320000 320000 320000 320000 320000 320000 320000 320000 320000 320000 320000 320000 320000 320000 315000 315000 315000 315000 315000 315000 315000 315000 315000 315000 315000 315000 315000 315000 315000 315000 315000 315000 315000 315000 315000 315000 315000 315000 315000 315000 315000 315000 315000 315000 315000 315000 315000 315000 315000 315000 315000 315000 315000 315000 315000 315000 315000 315000 315000 315000 315000 315000 315000 315000 315000 315000 315000 315000 315000 315000 315000 315000 315000 315000 315000 315000 315000 315000 315000 315000 315000 315000 315000 315000 315000 315000 315000 315000 315000 315000 315000 315000 315000 315000 315000 315000 315000 315000 315000 315000 315000 315000 315000 315000 315000 315000 315000 315000 315000 315000 315000 315000 315000 315000 315000 315000 315000 315000 315000 315000 315000 315000 315000 315000 315000 310000 310000 310000 310000 310000 310000 310000 310000 310000 310000 310000 310000 310000 310000 310000 310000 310000 310000 310000 310000 310000 310000 310000 310000 310000 310000 310000 310000 310000 310000 310000 310000 310000 310000 310000 310000 310000 310000 310000 310000 310000 310000 310000 310000 310000 310000 310000 310000 310000 310000 310000 310000 310000 310000 310000 310000 310000 310000 310000 310000 310000 310000 310000 310000 310000 310000 310000 310000 310000 310000 310000 310000 310000 310000 310000 310000 310000 310000 310000 310000 310000 310000 310000 310000 310000 310000 310000 310000 310000 310000 310000 310000 310000 310000 310000 310000 310000 310000 310000 310000 310000 310000 310000 310000 310000 310000 310000 310000 310000 310000 310000 305000 305000 305000 305000 305000 305000 305000 305000 305000 305000 305000 305000 305000 305000 305000 305000 305000 305000 305000 305000 305000 305000 305000 305000 305000 305000 305000 305000 305000 305000 305000 305000 305000 305000 305000 305000 305000 305000 305000 305000 305000 305000 305000 305000 305000 305000 305000 305000 305000 305000 305000 305000 305000 305000 305000 305000 305000 305000 305000 305000 305000 305000 305000 305000 305000 305000 305000 305000 305000 305000 305000 305000 305000 305000 305000 305000 305000 305000 305000 305000 305000 305000 305000 305000 305000 305000 305000 305000 305000 305000 305000 305000 305000 305000 305000 305000 305000 305000 305000 305000 305000 305000 305000 305000 305000 305000 305000 305000 305000 305000 305000 300000 300000 300000 300000 300000 300000 300000 300000 300000 300000 300000 300000 300000 300000 300000 300000 300000 300000 300000 300000 300000 300000 300000 300000 300000 300000 300000 300000 300000 300000 300000 300000 300000 300000 300000 300000 300000 300000 300000 300000 300000 300000 300000 300000 300000 300000 300000 300000 300000 300000 300000 300000 300000 300000 300000 300000 300000 300000 300000 300000 300000 300000 300000 300000 300000 300000 300000 300000 300000 300000 300000 300000 300000 300000 300000 300000 300000 300000 300000 300000 300000 300000 300000 300000 300000 300000 300000 300000 300000 300000 300000 300000 300000 300000 300000 300000 300000 300000 300000 300000 300000 300000 300000 300000 300000 300000 300000 300000 300000 300000 300000 295000 295000 295000 295000 295000 295000 295000 295000 295000 295000 295000 295000 295000 295000 295000 295000 295000 295000 295000 295000 295000 295000 295000 295000 295000 295000 295000 295000 295000 295000 295000 295000 295000 295000 295000 295000 295000 295000 295000 295000 295000 295000 295000 295000 295000 295000 295000 295000 295000 295000 295000 295000 295000 295000 295000 295000 295000 295000 295000 295000 295000 295000 295000 295000 295000 295000 295000 295000 295000 295000 295000 295000 295000 295000 295000 295000 295000 295000 295000 295000 295000 295000 295000 295000 295000 295000 295000 295000 295000 295000 295000 295000 295000 295000 295000 295000 295000 295000 295000 295000 295000 295000 295000 295000 295000 295000 295000 295000 295000 295000 295000 290000 290000 290000 290000 290000 290000 290000 290000 290000 290000 290000 290000 290000 290000 290000 290000 290000 290000 290000 290000 290000 290000 290000 290000 290000 290000 290000 290000 290000 290000 290000 290000 290000 290000 290000 290000 290000 290000 290000 290000 290000 290000 290000 290000 290000 290000 290000 290000 290000 290000 290000 290000 290000 290000 290000 290000 290000 290000 290000 290000 290000 290000 290000 290000 290000 290000 290000 290000 290000 290000 290000 290000 290000 290000 290000 290000 290000 290000 290000 290000 290000 290000 290000 290000 290000 290000 290000 290000 290000 290000 290000 290000 290000 290000 290000 290000 290000 290000 290000 290000 290000 290000 290000 290000 290000 290000 290000 290000 290000 290000 290000 285000 285000 285000 285000 285000 285000 285000 285000 285000 285000 285000 285000 285000 285000 285000 285000 285000 285000 285000 285000 285000 285000 285000 285000 285000 285000 285000 285000 285000 285000 285000 285000 285000 285000 285000 285000 285000 285000 285000 285000 285000 285000 285000 285000 285000 285000 285000 285000 285000 285000 285000 285000 285000 285000 285000 285000 285000 285000 285000 285000 285000 285000 285000 285000 285000 285000 285000 285000 285000 285000 285000 285000 285000 285000 285000 285000 285000 285000 285000 285000 285000 285000 285000 285000 285000 285000 285000 285000 285000 285000 285000 285000 285000 285000 285000 285000 285000 285000 285000 285000 285000 285000 285000 285000 285000 285000 285000 285000 285000 285000 285000 280000 280000 280000 280000 280000 280000 280000 280000 280000 280000 280000 280000 280000 280000 280000 280000 280000 280000 280000 280000 280000 280000 280000 280000 280000 280000 280000 280000 280000 280000 280000 280000 280000 280000 280000 280000 280000 280000 280000 280000 280000 280000 280000 280000 280000 280000 280000 280000 280000 280000 280000 280000 280000 280000 280000 280000 280000 280000 280000 280000 280000 280000 280000 280000 280000 280000 280000 280000 280000 280000 280000 280000 280000 280000 280000 280000 280000 280000 280000 280000 280000 280000 280000 280000 280000 280000 280000 280000 280000 280000 280000 280000 280000 280000 280000 280000 280000 280000 280000 280000 280000 280000 280000 280000 280000 280000 280000 280000 280000 280000 280000 275000 275000 275000 275000 275000 275000 275000 275000 275000 275000 275000 275000 275000 275000 275000 275000 275000 275000 275000 275000 275000 275000 275000 275000 275000 275000 275000 275000 275000 275000 275000 275000 275000 275000 275000 275000 275000 275000 275000 275000 275000 275000 275000 275000 275000 275000 275000 275000 275000 275000 275000 275000 275000 275000 275000 275000 275000 275000 275000 275000 275000 275000 275000 275000 275000 275000 275000 275000 275000 275000 275000 275000 275000 275000 275000 275000 275000 275000 275000 275000 275000 275000 275000 275000 275000 275000 275000 275000 275000 275000 275000 275000 275000 275000 275000 275000 275000 275000 275000 275000 275000 275000 275000 275000 275000 275000 275000 275000 275000 275000 275000 270000 270000 270000 270000 270000 270000 270000 270000 270000 270000 270000 270000 270000 270000 270000 270000 270000 270000 270000 270000 270000 270000 270000 270000 270000 270000 270000 270000 270000 270000 270000 270000 270000 270000 270000 270000 270000 270000 270000 270000 270000 270000 270000 270000 270000 270000 270000 270000 270000 270000 270000 270000 270000 270000 270000 270000 270000 270000 270000 270000 270000 270000 270000 270000 270000 270000 270000 270000 270000 270000 270000 270000 270000 270000 270000 270000 270000 270000 270000 270000 270000 270000 270000 270000 270000 270000 270000 270000 270000 270000 270000 270000 270000 270000 270000 270000 270000 270000 270000 270000 270000 270000 270000 270000 270000 270000 270000 270000 270000 270000 270000 265000 265000 265000 265000 265000 265000 265000 265000 265000 265000 265000 265000 265000 265000 265000 265000 265000 265000 265000 265000 265000 265000 265000 265000 265000 265000 265000 265000 265000 265000 265000 265000 265000 265000 265000 265000 265000 265000 265000 265000 265000 265000 265000 265000 265000 265000 265000 265000 265000 265000 265000 265000 265000 265000 265000 265000 265000 265000 265000 265000 265000 265000 265000 265000 265000 265000 265000 265000 265000 265000 265000 265000 265000 265000 265000 265000 265000 265000 265000 265000 265000 265000 265000 265000 265000 265000 265000 265000 265000 265000 265000 265000 265000 265000 265000 265000 265000 265000 265000 265000 265000 265000 265000 265000 265000 265000 265000 265000 265000 265000 265000 260000 260000 260000 260000 260000 260000 260000 260000 260000 260000 260000 260000 260000 260000 260000 260000 260000 260000 260000 260000 260000 260000 260000 260000 260000 260000 260000 260000 260000 260000 260000 260000 260000 260000 260000 260000 260000 260000 260000 260000 260000 260000 260000 260000 260000 260000 260000 260000 260000 260000 260000 260000 260000 260000 260000 260000 260000 260000 260000 260000 260000 260000 260000 260000 260000 260000 260000 260000 260000 260000 260000 260000 260000 260000 260000 260000 260000 260000 260000 260000 260000 260000 260000 260000 260000 260000 260000 260000 260000 260000 260000 260000 260000 260000 260000 260000 260000 260000 260000 260000 260000 260000 260000 260000 260000 260000 260000 260000 260000 260000 260000 255000 255000 255000 255000 255000 255000 255000 255000 255000 255000 255000 255000 255000 255000 255000 255000 255000 255000 255000 255000 255000 255000 255000 255000 255000 255000 255000 255000 255000 255000 255000 255000 255000 255000 255000 255000 255000 255000 255000 255000 255000 255000 255000 255000 255000 255000 255000 255000 255000 255000 255000 255000 255000 255000 255000 255000 255000 255000 255000 255000 255000 255000 255000 255000 255000 255000 255000 255000 255000 255000 255000 255000 255000 255000 255000 255000 255000 255000 255000 255000 255000 255000 255000 255000 255000 255000 255000 255000 255000 255000 255000 255000 255000 255000 255000 255000 255000 255000 255000 255000 255000 255000 255000 255000 255000 255000 255000 255000 255000 255000 255000 250000 250000 250000 250000 250000 250000 250000 250000 250000 250000 250000 250000 250000 250000 250000 250000 250000 250000 250000 250000 250000 250000 250000 250000 250000 250000 250000 250000 250000 250000 250000 250000 250000 250000 250000 250000 250000 250000 250000 250000 250000 250000 250000 250000 250000 250000 250000 250000 250000 250000 250000 250000 250000 250000 250000 250000 250000 250000 250000 250000 250000 250000 250000 250000 250000 250000 250000 250000 250000 250000 250000 250000 250000 250000 250000 250000 250000 250000 250000 250000 250000 250000 250000 250000 250000 250000 250000 250000 250000 250000 250000 250000 250000 250000 250000 250000 250000 250000 250000 250000 250000 250000 250000 250000 250000 250000 250000 250000 250000 250000 250000 245000 245000 245000 245000 245000 245000 245000 245000 245000 245000 245000 245000 245000 245000 245000 245000 245000 245000 245000 245000 245000 245000 245000 245000 245000 245000 245000 245000 245000 245000 245000 245000 245000 245000 245000 245000 245000 245000 245000 245000 245000 245000 245000 245000 245000 245000 245000 245000 245000 245000 245000 245000 245000 245000 245000 245000 245000 245000 245000 245000 245000 245000 245000 245000 245000 245000 245000 245000 245000 245000 245000 245000 245000 245000 245000 245000 245000 245000 245000 245000 245000 245000 245000 245000 245000 245000 245000 245000 245000 245000 245000 245000 245000 245000 245000 245000 245000 245000 245000 245000 245000 245000 245000 245000 245000 245000 245000 245000 245000 245000 245000 240000 240000 240000 240000 240000 240000 240000 240000 240000 240000 240000 240000 240000 240000 240000 240000 240000 240000 240000 240000 240000 240000 240000 240000 240000 240000 240000 240000 240000 240000 240000 240000 240000 240000 240000 240000 240000 240000 240000 240000 240000 240000 240000 240000 240000 240000 240000 240000 240000 240000 240000 240000 240000 240000 240000 240000 240000 240000 240000 240000 240000 240000 240000 240000 240000 240000 240000 240000 240000 240000 240000 240000 240000 240000 240000 240000 240000 240000 240000 240000 240000 240000 240000 240000 240000 240000 240000 240000 240000 240000 240000 240000 240000 240000 240000 240000 240000 240000 240000 240000 240000 240000 240000 240000 240000 240000 240000 240000 240000 240000 240000 235000 235000 235000 235000 235000 235000 235000 235000 235000 235000 235000 235000 235000 235000 235000 235000 235000 235000 235000 235000 235000 235000 235000 235000 235000 235000 235000 235000 235000 235000 235000 235000 235000 235000 235000 235000 235000 235000 235000 235000 235000 235000 235000 235000 235000 235000 235000 235000 235000 235000 235000 235000 235000 235000 235000 235000 235000 235000 235000 235000 235000 235000 235000 235000 235000 235000 235000 235000 235000 235000 235000 235000 235000 235000 235000 235000 235000 235000 235000 235000 235000 235000 235000 235000 235000 235000 235000 235000 235000 235000 235000 235000 235000 235000 235000 235000 235000 235000 235000 235000 235000 235000 235000 235000 235000 235000 235000 235000 235000 235000 235000 230000 230000 230000 230000 230000 230000 230000 230000 230000 230000 230000 230000 230000 230000 230000 230000 230000 230000 230000 230000 230000 230000 230000 230000 230000 230000 230000 230000 230000 230000 230000 230000 230000 230000 230000 230000 230000 230000 230000 230000 230000 230000 230000 230000 230000 230000 230000 230000 230000 230000 230000 230000 230000 230000 230000 230000 230000 230000 230000 230000 230000 230000 230000 230000 230000 230000 230000 230000 230000 230000 230000 230000 230000 230000 230000 230000 230000 230000 230000 230000 230000 230000 230000 230000 230000 230000 230000 230000 230000 230000 230000 230000 230000 230000 230000 230000 230000 230000 230000 230000 230000 230000 230000 230000 230000 230000 230000 230000 230000 230000 230000 225000 225000 225000 225000 225000 225000 225000 225000 225000 225000 225000 225000 225000 225000 225000 225000 225000 225000 225000 225000 225000 225000 225000 225000 225000 225000 225000 225000 225000 225000 225000 225000 225000 225000 225000 225000 225000 225000 225000 225000 225000 225000 225000 225000 225000 225000 225000 225000 225000 225000 225000 225000 225000 225000 225000 225000 225000 225000 225000 225000 225000 225000 225000 225000 225000 225000 225000 225000 225000 225000 225000 225000 225000 225000 225000 225000 225000 225000 225000 225000 225000 225000 225000 225000 225000 225000 225000 225000 225000 225000 225000 225000 225000 225000 225000 225000 225000 225000 225000 225000 225000 225000 225000 225000 225000 225000 225000 225000 225000 225000 225000 220000 220000 220000 220000 220000 220000 220000 220000 220000 220000 220000 220000 220000 220000 220000 220000 220000 220000 220000 220000 220000 220000 220000 220000 220000 220000 220000 220000 220000 220000 220000 220000 220000 220000 220000 220000 220000 220000 220000 220000 220000 220000 220000 220000 220000 220000 220000 220000 220000 220000 220000 220000 220000 220000 220000 220000 220000 220000 220000 220000 220000 220000 220000 220000 220000 220000 220000 220000 220000 220000 220000 220000 220000 220000 220000 220000 220000 220000 220000 220000 220000 220000 220000 220000 220000 220000 220000 220000 220000 220000 220000 220000 220000 220000 220000 220000 220000 220000 220000 220000 220000 220000 220000 220000 220000 220000 220000 220000 220000 220000 220000 215000 215000 215000 215000 215000 215000 215000 215000 215000 215000 215000 215000 215000 215000 215000 215000 215000 215000 215000 215000 215000 215000 215000 215000 215000 215000 215000 215000 215000 215000 215000 215000 215000 215000 215000 215000 215000 215000 215000 215000 215000 215000 215000 215000 215000 215000 215000 215000 215000 215000 215000 215000 215000 215000 215000 215000 215000 215000 215000 215000 215000 215000 215000 215000 215000 215000 215000 215000 215000 215000 215000 215000 215000 215000 215000 215000 215000 215000 215000 215000 215000 215000 215000 215000 215000 215000 215000 215000 215000 215000 215000 215000 215000 215000 215000 215000 215000 215000 215000 215000 215000 215000 215000 215000 215000 215000 215000 215000 215000 215000 215000 210000 210000 210000 210000 210000 210000 210000 210000 210000 210000 210000 210000 210000 210000 210000 210000 210000 210000 210000 210000 210000 210000 210000 210000 210000 210000 210000 210000 210000 210000 210000 210000 210000 210000 210000 210000 210000 210000 210000 210000 210000 210000 210000 210000 210000 210000 210000 210000 210000 210000 210000 210000 210000 210000 210000 210000 210000 210000 210000 210000 210000 210000 210000 210000 210000 210000 210000 210000 210000 210000 210000 210000 210000 210000 210000 210000 210000 210000 210000 210000 210000 210000 210000 210000 210000 210000 210000 210000 210000 210000 210000 210000 210000 210000 210000 210000 210000 210000 210000 210000 210000 210000 210000 210000 210000 210000 210000 210000 210000 210000 210000 205000 205000 205000 205000 205000 205000 205000 205000 205000 205000 205000 205000 205000 205000 205000 205000 205000 205000 205000 205000 205000 205000 205000 205000 205000 205000 205000 205000 205000 205000 205000 205000 205000 205000 205000 205000 205000 205000 205000 205000 205000 205000 205000 205000 205000 205000 205000 205000 205000 205000 205000 205000 205000 205000 205000 205000 205000 205000 205000 205000 205000 205000 205000 205000 205000 205000 205000 205000 205000 205000 205000 205000 205000 205000 205000 205000 205000 205000 205000 205000 205000 205000 205000 205000 205000 205000 205000 205000 205000 205000 205000 205000 205000 205000 205000 205000 205000 205000 205000 205000 205000 205000 205000 205000 205000 205000 205000 205000 205000 205000 205000 200000 200000 200000 200000 200000 200000 200000 200000 200000 200000 200000 200000 200000 200000 200000 200000 200000 200000 200000 200000 200000 200000 200000 200000 200000 200000 200000 200000 200000 200000 200000 200000 200000 200000 200000 200000 200000 200000 200000 200000 200000 200000 200000 200000 200000 200000 200000 200000 200000 200000 200000 200000 200000 200000 200000 200000 200000 200000 200000 200000 200000 200000 200000 200000 200000 200000 200000 200000 200000 200000 200000 200000 200000 200000 200000 200000 200000 200000 200000 200000 200000 200000 200000 200000 200000 200000 200000 200000 200000 200000 200000 200000 200000 200000 200000 200000 200000 200000 200000 200000 200000 200000 200000 200000 200000 200000 200000 200000 200000 200000 200000 195000 195000 195000 195000 195000 195000 195000 195000 195000 195000 195000 195000 195000 195000 195000 195000 195000 195000 195000 195000 195000 195000 195000 195000 195000 195000 195000 195000 195000 195000 195000 195000 195000 195000 195000 195000 195000 195000 195000 195000 195000 195000 195000 195000 195000 195000 195000 195000 195000 195000 195000 195000 195000 195000 195000 195000 195000 195000 195000 195000 195000 195000 195000 195000 195000 195000 195000 195000 195000 195000 195000 195000 195000 195000 195000 195000 195000 195000 195000 195000 195000 195000 195000 195000 195000 195000 195000 195000 195000 195000 195000 195000 195000 195000 195000 195000 195000 195000 195000 195000 195000 195000 195000 195000 195000 195000 195000 195000 195000 195000 195000 190000 190000 190000 190000 190000 190000 190000 190000 190000 190000 190000 190000 190000 190000 190000 190000 190000 190000 190000 190000 190000 190000 190000 190000 190000 190000 190000 190000 190000 190000 190000 190000 190000 190000 190000 190000 190000 190000 190000 190000 190000 190000 190000 190000 190000 190000 190000 190000 190000 190000 190000 190000 190000 190000 190000 190000 190000 190000 190000 190000 190000 190000 190000 190000 190000 190000 190000 190000 190000 190000 190000 190000 190000 190000 190000 190000 190000 190000 190000 190000 190000 190000 190000 190000 190000 190000 190000 190000 190000 190000 190000 190000 190000 190000 190000 190000 190000 190000 190000 190000 190000 190000 190000 190000 190000 190000 190000 190000 190000 190000 190000 185000 185000 185000 185000 185000 185000 185000 185000 185000 185000 185000 185000 185000 185000 185000 185000 185000 185000 185000 185000 185000 185000 185000 185000 185000 185000 185000 185000 185000 185000 185000 185000 185000 185000 185000 185000 185000 185000 185000 185000 185000 185000 185000 185000 185000 185000 185000 185000 185000 185000 185000 185000 185000 185000 185000 185000 185000 185000 185000 185000 185000 185000 185000 185000 185000 185000 185000 185000 185000 185000 185000 185000 185000 185000 185000 185000 185000 185000 185000 185000 185000 185000 185000 185000 185000 185000 185000 185000 185000 185000 185000 185000 185000 185000 185000 185000 185000 185000 185000 185000 185000 185000 185000 185000 185000 185000 185000 185000 185000 185000 185000 180000 180000 180000 180000 180000 180000 180000 180000 180000 180000 180000 180000 180000 180000 180000 180000 180000 180000 180000 180000 180000 180000 180000 180000 180000 180000 180000 180000 180000 180000 180000 180000 180000 180000 180000 180000 180000 180000 180000 180000 180000 180000 180000 180000 180000 180000 180000 180000 180000 180000 180000 180000 180000 180000 180000 180000 180000 180000 180000 180000 180000 180000 180000 180000 180000 180000 180000 180000 180000 180000 180000 180000 180000 180000 180000 180000 180000 180000 180000 180000 180000 180000 180000 180000 180000 180000 180000 180000 180000 180000 180000 180000 180000 180000 180000 180000 180000 180000 180000 180000 180000 180000 180000 180000 180000 180000 180000 180000 180000 180000 180000 175000 175000 175000 175000 175000 175000 175000 175000 175000 175000 175000 175000 175000 175000 175000 175000 175000 175000 175000 175000 175000 175000 175000 175000 175000 175000 175000 175000 175000 175000 175000 175000 175000 175000 175000 175000 175000 175000 175000 175000 175000 175000 175000 175000 175000 175000 175000 175000 175000 175000 175000 175000 175000 175000 175000 175000 175000 175000 175000 175000 175000 175000 175000 175000 175000 175000 175000 175000 175000 175000 175000 175000 175000 175000 175000 175000 175000 175000 175000 175000 175000 175000 175000 175000 175000 175000 175000 175000 175000 175000 175000 175000 175000 175000 175000 175000 175000 175000 175000 175000 175000 175000 175000 175000 175000 175000 175000 175000 175000 175000 175000 170000 170000 170000 170000 170000 170000 170000 170000 170000 170000 170000 170000 170000 170000 170000 170000 170000 170000 170000 170000 170000 170000 170000 170000 170000 170000 170000 170000 170000 170000 170000 170000 170000 170000 170000 170000 170000 170000 170000 170000 170000 170000 170000 170000 170000 170000 170000 170000 170000 170000 170000 170000 170000 170000 170000 170000 170000 170000 170000 170000 170000 170000 170000 170000 170000 170000 170000 170000 170000 170000 170000 170000 170000 170000 170000 170000 170000 170000 170000 170000 170000 170000 170000 170000 170000 170000 170000 170000 170000 170000 170000 170000 170000 170000 170000 170000 170000 170000 170000 170000 170000 170000 170000 170000 170000 170000 170000 170000 170000 170000 170000 165000 165000 165000 165000 165000 165000 165000 165000 165000 165000 165000 165000 165000 165000 165000 165000 165000 165000 165000 165000 165000 165000 165000 165000 165000 165000 165000 165000 165000 165000 165000 165000 165000 165000 165000 165000 165000 165000 165000 165000 165000 165000 165000 165000 165000 165000 165000 165000 165000 165000 165000 165000 165000 165000 165000 165000 165000 165000 165000 165000 165000 165000 165000 165000 165000 165000 165000 165000 165000 165000 165000 165000 165000 165000 165000 165000 165000 165000 165000 165000 165000 165000 165000 165000 165000 165000 165000 165000 165000 165000 165000 165000 165000 165000 165000 165000 165000 165000 165000 165000 165000 165000 165000 165000 165000 165000 165000 165000 165000 165000 165000 160000 160000 160000 160000 160000 160000 160000 160000 160000 160000 160000 160000 160000 160000 160000 160000 160000 160000 160000 160000 160000 160000 160000 160000 160000 160000 160000 160000 160000 160000 160000 160000 16000