<?xml version="1.0"?>
<VTKFile byte_order="LittleEndian" type="UnstructuredGrid" version="0.1">
<UnstructuredGrid>
<Piece NumberOfCells="1750" NumberOfPoints="2376">
<PointData>
<DataArray Name="Depth wrt surface" format="ascii" type="Float64">
250000 242857 235714 228571 221429 214286 207143 200000 192857 185714 178571 171429 164286 157143 150000 142857 135714 128571 121429 114286 107143 100000 92857.1 85714.3 78571.4 71428.6 64285.7 57142.9 50000 42857.1 35714.3 28571.4 21428.6 14285.7 7142.86 0 250000 242857 235714 228571 221429 214286 207143 200000 192857 185714 178571 171429 164286 157143 150000 142857 135714 128571 121429 114286 107143 100000 92857.1 85714.3 78571.4 71428.6 64285.7 57142.9 50000 42857.1 35714.3 28571.4 21428.6 14285.7 7142.86 0 250000 242857 235714 228571 221429 214286 207143 200000 192857 185714 178571 171429 164286 157143 150000 142857 135714 128571 121429 114286 107143 100000 92857.1 85714.3 78571.4 71428.6 64285.7 57142.9 50000 42857.1 35714.3 28571.4 21428.6 14285.7 7142.86 0 250000 242857 235714 228571 221429 214286 207143 200000 192857 185714 178571 171429 164286 157143 150000 142857 135714 128571 121429 114286 107143 100000 92857.1 85714.3 78571.4 71428.6 64285.7 57142.9 50000 42857.1 35714.3 28571.4 21428.6 14285.7 7142.86 0 250000 242857 235714 228571 221429 214286 207143 200000 192857 185714 178571 171429 164286 157143 150000 142857 135714 128571 121429 114286 107143 100000 92857.1 85714.3 78571.4 71428.6 64285.7 57142.9 50000 42857.1 35714.3 28571.4 21428.6 14285.7 7142.86 0 250000 242857 235714 228571 221429 214286 207143 200000 192857 185714 178571 171429 164286 157143 150000 142857 135714 128571 121429 114286 107143 100000 92857.1 85714.3 78571.4 71428.6 64285.7 57142.9 50000 42857.1 35714.3 28571.4 21428.6 14285.7 7142.86 0 250000 242857 235714 228571 221429 214286 207143 200000 192857 185714 178571 171429 164286 157143 150000 142857 135714 128571 121429 114286 107143 100000 92857.1 85714.3 78571.4 71428.6 64285.7 57142.9 50000 42857.1 35714.3 28571.4 21428.6 14285.7 7142.86 0 250000 242857 235714 228571 221429 214286 207143 200000 192857 185714 178571 171429 164286 157143 150000 142857 135714 128571 121429 114286 107143 100000 92857.1 85714.3 78571.4 71428.6 64285.7 57142.9 50000 42857.1 35714.3 28571.4 21428.6 14285.7 7142.86 0 250000 242857 235714 228571 221429 214286 207143 200000 192857 185714 178571 171429 164286 157143 150000 142857 135714 128571 121429 114286 107143 100000 92857.1 85714.3 78571.4 71428.6 64285.7 57142.9 50000 42857.1 35714.3 28571.4 21428.6 14285.7 7142.86 0 250000 242857 235714 228571 221429 214286 207143 200000 192857 185714 178571 171429 164286 157143 150000 142857 135714 128571 121429 114286 107143 100000 92857.1 85714.3 78571.4 71428.6 64285.7 57142.9 50000 42857.1 35714.3 28571.4 21428.6 14285.7 7142.86 0 250000 242857 235714 228571 221429 214286 207143 200000 192857 185714 178571 171429 164286 157143 150000 142857 135714 128571 121429 114286 107143 100000 92857.1 85714.3 78571.4 71428.6 64285.7 57142.9 50000 42857.1 35714.3 28571.4 21428.6 14285.7 7142.86 0 250000 242857 235714 228571 221429 214286 207143 200000 192857 185714 178571 171429 164286 157143 150000 142857 135714 128571 121429 114286 107143 100000 92857.1 85714.3 78571.4 71428.6 64285.7 57142.9 50000 42857.1 35714.3 28571.4 21428.6 14285.7 7142.86 0 250000 242857 235714 228571 221429 214286 207143 200000 192857 185714 178571 171429 164286 157143 150000 142857 135714 128571 121429 114286 107143 100000 92857.1 85714.3 78571.4 71428.6 64285.7 57142.9 50000 42857.1 35714.3 28571.4 21428.6 14285.7 7142.86 0 250000 242857 235714 228571 221429 214286 207143 200000 192857 185714 178571 171429 164286 157143 150000 142857 135714 128571 121429 114286 107143 100000 92857.1 85714.3 78571.4 71428.6 64285.7 57142.9 50000 42857.1 35714.3 28571.4 21428.6 14285.7 7142.86 0 250000 242857 235714 228571 221429 214286 207143 200000 192857 185714 178571 171429 164286 157143 150000 142857 135714 128571 121429 114286 107143 100000 92857.1 85714.3 78571.4 71428.6 64285.7 57142.9 50000 42857.1 35714.3 28571.4 21428.6 14285.7 7142.86 0 250000 242857 235714 228571 221429 214286 207143 200000 192857 185714 178571 171429 164286 157143 150000 142857 135714 128571 121429 114286 107143 100000 92857.1 85714.3 78571.4 71428.6 64285.7 57142.9 50000 42857.1 35714.3 28571.4 21428.6 14285.7 7142.86 0 250000 242857 235714 228571 221429 214286 207143 200000 192857 185714 178571 171429 164286 157143 150000 142857 135714 128571 121429 114286 107143 100000 92857.1 85714.3 78571.4 71428.6 64285.7 57142.9 50000 42857.1 35714.3 28571.4 21428.6 14285.7 7142.86 0 250000 242857 235714 228571 221429 214286 207143 200000 192857 185714 178571 171429 164286 157143 150000 142857 135714 128571 121429 114286 107143 100000 92857.1 85714.3 78571.4 71428.6 64285.7 57142.9 50000 42857.1 35714.3 28571.4 21428.6 14285.7 7142.86 0 250000 242857 235714 228571 221429 214286 207143 200000 192857 185714 178571 171429 164286 157143 150000 142857 135714 128571 121429 114286 107143 100000 92857.1 85714.3 78571.4 71428.6 64285.7 57142.9 50000 42857.1 35714.3 28571.4 21428.6 14285.7 7142.86 0 250000 242857 235714 228571 221429 214286 207143 200000 192857 185714 178571 171429 164286 157143 150000 142857 135714 128571 121429 114286 107143 100000 92857.1 85714.3 78571.4 71428.6 64285.7 57142.9 50000 42857.1 35714.3 28571.4 21428.6 14285.7 7142.86 0 250000 242857 235714 228571 221429 214286 207143 200000 192857 185714 178571 171429 164286 157143 150000 142857 135714 128571 121429 114286 107143 100000 92857.1 85714.3 78571.4 71428.6 64285.7 57142.9 50000 42857.1 35714.3 28571.4 21428.6 14285.7 7142.86 0 250000 242857 235714 228571 221429 214286 207143 200000 192857 185714 178571 171429 164286 157143 150000 142857 135714 128571 121429 114286 107143 100000 92857.1 85714.3 78571.4 71428.6 64285.7 57142.9 50000 42857.1 35714.3 28571.4 21428.6 14285.7 7142.86 0 250000 242857 235714 228571 221429 214286 207143 200000 192857 185714 178571 171429 164286 157143 150000 142857 135714 128571 121429 114286 107143 100000 92857.1 85714.3 78571.4 71428.6 64285.7 57142.9 50000 42857.1 35714.3 28571.4 21428.6 14285.7 7142.86 0 250000 242857 235714 228571 221429 214286 207143 200000 192857 185714 178571 171429 164286 157143 150000 142857 135714 128571 121429 114286 107143 100000 92857.1 85714.3 78571.4 71428.6 64285.7 57142.9 50000 42857.1 35714.3 28571.4 21428.6 14285.7 7142.86 0 250000 242857 235714 228571 221429 214286 207143 200000 192857 185714 178571 171429 164286 157143 150000 142857 135714 128571 121429 114286 107143 100000 92857.1 85714.3 78571.4 71428.6 64285.7 57142.9 50000 42857.1 35714.3 28571.4 21428.6 14285.7 7142.86 0 250000 242857 235714 228571 221429 214286 207143 200000 192857 185714 178571 171429 164286 157143 150000 142857 135714 128571 121429 114286 107143 100000 92857.1 85714.3 78571.4 71428.6 64285.7 57142.9 50000 42857.1 35714.3 28571.4 21428.6 14285.7 7142.86 0 250000 242857 235714 228571 221429 214286 207143 200000 192857 185714 178571 171429 164286 157143 150000 142857 135714 128571 121429 114286 107143 100000 92857.1 85714.3 78571.4 71428.6 64285.7 57142.9 50000 42857.1 35714.3 28571.4 21428.6 14285.7 7142.86 0 250000 242857 235714 228571 221429 214286 207143 200000 192857 185714 178571 171429 164286 157143 150000 142857 135714 128571 121429 114286 107143 100000 92857.1 85714.3 78571.4 71428.6 64285.7 57142.9 50000 42857.1 35714.3 28571.4 21428.6 14285.7 7142.86 0 250000 242857 235714 228571 221429 214286 207143 200000 192857 185714 178571 171429 164286 157143 150000 142857 135714 128571 121429 114286 107143 100000 92857.1 85714.3 78571.4 71428.6 64285.7 57142.9 50000 42857.1 35714.3 28571.4 21428.6 14285.7 7142.86 0 250000 242857 235714 228571 221429 214286 207143 200000 192857 185714 178571 171429 164286 157143 150000 142857 135714 128571 121429 114286 107143 100000 92857.1 85714.3 78571.4 71428.6 64285.7 57142.9 50000 42857.1 35714.3 28571.4 21428.6 14285.7 7142.86 0 250000 242857 235714 228571 221429 214286 207143 200000 192857 185714 178571 171429 164286 157143 150000 142857 135714 128571 121429 114286 107143 100000 92857.1 85714.3 78571.4 71428.6 64285.7 57142.9 50000 42857.1 35714.3 28571.4 21428.6 14285.7 7142.86 0 250000 242857 235714 228571 221429 214286 207143 200000 192857 185714 178571 171429 164286 157143 150000 142857 135714 128571 121429 114286 107143 100000 92857.1 85714.3 78571.4 71428.6 64285.7 57142.9 50000 42857.1 35714.3 28571.4 21428.6 14285.7 7142.86 0 250000 242857 235714 228571 221429 214286 207143 200000 192857 185714 178571 171429 164286 157143 150000 142857 135714 128571 121429 114286 107143 100000 92857.1 85714.3 78571.4 71428.6 64285.7 57142.9 50000 42857.1 35714.3 28571.4 21428.6 14285.7 7142.86 0 250000 242857 235714 228571 221429 214286 207143 200000 192857 185714 178571 171429 164286 157143 150000 142857 135714 128571 121429 114286 107143 100000 92857.1 85714.3 78571.4 71428.6 64285.7 57142.9 50000 42857.1 35714.3 28571.4 21428.6 14285.7 7142.86 0 250000 242857 235714 228571 221429 214286 207143 200000 192857 185714 178571 171429 164286 157143 150000 142857 135714 128571 121429 114286 107143 100000 92857.1 85714.3 78571.4 71428.6 64285.7 57142.9 50000 42857.1 35714.3 28571.4 21428.6 14285.7 7142.86 0 250000 242857 235714 228571 221429 214286 207143 200000 192857 185714 178571 171429 164286 157143 150000 142857 135714 128571 121429 114286 107143 100000 92857.1 85714.3 78571.4 71428.6 64285.7 57142.9 50000 42857.1 35714.3 28571.4 21428.6 14285.7 7142.86 0 250000 242857 235714 228571 221429 214286 207143 200000 192857 185714 178571 171429 164286 157143 150000 142857 135714 128571 121429 114286 107143 100000 92857.1 85714.3 78571.4 71428.6 64285.7 57142.9 50000 42857.1 35714.3 28571.4 21428.6 14285.7 7142.86 0 250000 242857 235714 228571 221429 214286 207143 200000 192857 185714 178571 171429 164286 157143 150000 142857 135714 128571 121429 114286 107143 100000 92857.1 85714.3 78571.4 71428.6 64285.7 57142.9 50000 42857.1 35714.3 28571.4 21428.6 14285.7 7142.86 0 250000 242857 235714 228571 221429 214286 207143 200000 192857 185714 178571 171429 164286 157143 150000 142857 135714 128571 121429 114286 107143 100000 92857.1 85714.3 78571.4 71428.6 64285.7 57142.9 50000 42857.1 35714.3 28571.4 21428.6 14285.7 7142.86 0 250000 242857 235714 228571 221429 214286 207143 200000 192857 185714 178571 171429 164286 157143 150000 142857 135714 128571 121429 114286 107143 100000 92857.1 85714.3 78571.4 71428.6 64285.7 57142.9 50000 42857.1 35714.3 28571.4 21428.6 14285.7 7142.86 0 250000 242857 235714 228571 221429 214286 207143 200000 192857 185714 178571 171429 164286 157143 150000 142857 135714 128571 121429 114286 107143 100000 92857.1 85714.3 78571.4 71428.6 64285.7 57142.9 50000 42857.1 35714.3 28571.4 21428.6 14285.7 7142.86 0 250000 242857 235714 228571 221429 214286 207143 200000 192857 185714 178571 171429 164286 157143 150000 142857 135714 128571 121429 114286 107143 100000 92857.1 85714.3 78571.4 71428.6 64285.7 57142.9 50000 42857.1 35714.3 28571.4 21428.6 14285.7 7142.86 0 250000 242857 235714 228571 221429 214286 207143 200000 192857 185714 178571 171429 164286 157143 150000 142857 135714 128571 121429 114286 107143 100000 92857.1 85714.3 78571.4 71428.6 64285.7 57142.9 50000 42857.1 35714.3 28571.4 21428.6 14285.7 7142.86 0 250000 242857 235714 228571 221429 214286 207143 200000 192857 185714 178571 171429 164286 157143 150000 142857 135714 128571 121429 114286 107143 100000 92857.1 85714.3 78571.4 71428.6 64285.7 57142.9 50000 42857.1 35714.3 28571.4 21428.6 14285.7 7142.86 0 250000 242857 235714 228571 221429 214286 207143 200000 192857 185714 178571 171429 164286 157143 150000 142857 135714 128571 121429 114286 107143 100000 92857.1 85714.3 78571.4 71428.6 64285.7 57142.9 50000 42857.1 35714.3 28571.4 21428.6 14285.7 7142.86 0 250000 242857 235714 228571 221429 214286 207143 200000 192857 185714 178571 171429 164286 157143 150000 142857 135714 128571 121429 114286 107143 100000 92857.1 85714.3 78571.4 71428.6 64285.7 57142.9 50000 42857.1 35714.3 28571.4 21428.6 14285.7 7142.86 0 250000 242857 235714 228571 221429 214286 207143 200000 192857 185714 178571 171429 164286 157143 150000 142857 135714 128571 121429 114286 107143 100000 92857.1 85714.3 78571.4 71428.6 64285.7 57142.9 50000 42857.1 35714.3 28571.4 21428.6 14285.7 7142.86 0 250000 242857 235714 228571 221429 214286 207143 200000 192857 185714 178571 171429 164286 157143 150000 142857 135714 128571 121429 114286 107143 100000 92857.1 85714.3 78571.4 71428.6 64285.7 57142.9 50000 42857.1 35714.3 28571.4 21428.6 14285.7 7142.86 0 250000 242857 235714 228571 221429 214286 207143 200000 192857 185714 178571 171429 164286 157143 150000 142857 135714 128571 121429 114286 107143 100000 92857.1 85714.3 78571.4 71428.6 64285.7 57142.9 50000 42857.1 35714.3 28571.4 21428.6 14285.7 7142.86 0 250000 242857 235714 228571 221429 214286 207143 200000 192857 185714 178571 171429 164286 157143 150000 142857 135714 128571 121429 114286 107143 100000 92857.1 85714.3 78571.4 71428.6 64285.7 57142.9 50000 42857.1 35714.3 28571.4 21428.6 14285.7 7142.86 0 250000 242857 235714 228571 221429 214286 207143 200000 192857 185714 178571 171429 164286 157143 150000 142857 135714 128571 121429 114286 107143 100000 92857.1 85714.3 78571.4 71428.6 64285.7 57142.9 50000 42857.1 35714.3 28571.4 21428.6 14285.7 7142.86 0 250000 242857 235714 228571 221429 214286 207143 200000 192857 185714 178571 171429 164286 157143 150000 142857 135714 128571 121429 114286 107143 100000 92857.1 85714.3 78571.4 71428.6 64285.7 57142.9 50000 42857.1 35714.3 28571.4 21428.6 14285.7 7142.86 0 250000 242857 235714 228571 221429 214286 207143 200000 192857 185714 178571 171429 164286 157143 150000 142857 135714 128571 121429 114286 107143 100000 92857.1 85714.3 78571.4 71428.6 64285.7 57142.9 50000 42857.1 35714.3 28571.4 21428.6 14285.7 7142.86 0 250000 242857 235714 228571 221429 214286 207143 200000 192857 185714 178571 171429 164286 157143 150000 142857 135714 128571 121429 114286 107143 100000 92857.1 85714.3 78571.4 71428.6 64285.7 57142.9 50000 42857.1 35714.3 28571.4 21428.6 14285.7 7142.86 0 250000 242857 235714 228571 221429 214286 207143 200000 192857 185714 178571 171429 164286 157143 150000 142857 135714 128571 121429 114286 107143 100000 92857.1 85714.3 78571.4 71428.6 64285.7 57142.9 50000 42857.1 35714.3 28571.4 21428.6 14285.7 7142.86 0 250000 242857 235714 228571 221429 214286 207143 200000 192857 185714 178571 171429 164286 157143 150000 142857 135714 128571 121429 114286 107143 100000 92857.1 85714.3 78571.4 71428.6 64285.7 57142.9 50000 42857.1 35714.3 28571.4 21428.6 14285.7 7142.86 0 250000 242857 235714 228571 221429 214286 207143 200000 192857 185714 178571 171429 164286 157143 150000 142857 135714 128571 121429 114286 107143 100000 92857.1 85714.3 78571.4 71428.6 64285.7 57142.9 50000 42857.1 35714.3 28571.4 21428.6 14285.7 7142.86 0 250000 242857 235714 228571 221429 214286 207143 200000 192857 185714 178571 171429 164286 157143 150000 142857 135714 128571 121429 114286 107143 100000 92857.1 85714.3 78571.4 71428.6 64285.7 57142.9 50000 42857.1 35714.3 28571.4 21428.6 14285.7 7142.86 0 250000 242857 235714 228571 221429 214286 207143 200000 192857 185714 178571 171429 164286 157143 150000 142857 135714 128571 121429 114286 107143 100000 92857.1 85714.3 78571.4 71428.6 64285.7 57142.9 50000 42857.1 35714.3 28571.4 21428.6 14285.7 7142.86 0 250000 242857 235714 228571 221429 214286 207143 200000 192857 185714 178571 171429 164286 157143 150000 142857 135714 128571 121429 114286 107143 100000 92857.1 85714.3 78571.4 71428.6 64285.7 57142.9 50000 42857.1 35714.3 28571.4 21428.6 14285.7 7142.86 0 250000 242857 235714 228571 221429 214286 207143 200000 192857 185714 178571 171429 164286 157143 150000 142857 135714 128571 121429 114286 107143 100000 92857.1 85714.3 78571.4 71428.6 64285.7 57142.9 50000 42857.1 35714.3 28571.4 21428.6 14285.7 7142.86 0 250000 242857 235714 228571 221429 214286 207143 200000 192857 185714 178571 171429 164286 157143 150000 142857 135714 128571 121429 114286 107143 100000 92857.1 85714.3 78571.4 71428.6 64285.7 57142.9 50000 42857.1 35714.3 28571.4 21428.6 14285.7 7142.86 0 250000 242857 235714 228571 221429 214286 207143 200000 192857 185714 178571 171429 164286 157143 150000 142857 135714 128571 121429 114286 107143 100000 92857.1 85714.3 78571.4 71428.6 64285.7 57142.9 50000 42857.1 35714.3 28571.4 21428.6 14285.7 7142.86 0 250000 242857 235714 228571 221429 214286 207143 200000 192857 185714 178571 171429 164286 157143 150000 142857 135714 128571 121429 114286 107143 100000 92857.1 85714.3 78571.4 71428.6 64285.7 57142.9 50000 42857.1 35714.3 28571.4 21428.6 14285.7 7142.86 0 250000 242857 235714 228571 221429 214286 207143 200000 192857 185714 178571 171429 164286 157143 150000 142857 135714 128571 121429 114286 107143 100000 92857.1 85714.3 78571.4 71428.6 64285.7 57142.9 50000 42857.1 35714.3 28571.4 21428.6 14285.7 7142.86 0 250000 242857 235714 228571 221429 214286 207143 200000 192857 185714 178571 171429 164286 157143 150000 142857 135714 128571 121429 114286 107143 100000 92857.1 85714.3 78571.4 71428.6 64285.7 57142.9 50000 42857.1 35714.3 28571.4 21428.6 14285.7 7142.86 0 
</DataArray>
<DataArray Name="Depth wrt reference" format="ascii" type="Float64">