<?xml version="1.0"?>
<VTKFile byte_order="LittleEndian" type="UnstructuredGrid" version="0.1">
<UnstructuredGrid>
<Piece NumberOfCells="300" NumberOfPoints="341">
<PointData>
<DataArray Name="Depth wrt surface" format="ascii" type="Float64">
1e+06 1e+06 1e+06 1e+06 1e+06 1e+06 1e+06 1e+06 1e+06 1e+06 1e+06 1e+06 1e+06 1e+06 1e+06 1e+06 1e+06 1e+06 1e+06 1e+06 1e+06 1e+06 1e+06 1e+06 1e+06 1e+06 1e+06 1e+06 1e+06 1e+06 1e+06 900000 900000 900000 900000 900000 900000 900000 900000 900000 900000 900000 900000 900000 900000 900000 900000 900000 900000 900000 900000 900000 900000 900000 900000 900000 900000 900000 900000 900000 900000 900000 800000 800000 800000 800000 800000 800000 800000 800000 800000 800000 800000 800000 800000 800000 800000 800000 800000 800000 800000 800000 800000 800000 800000 800000 800000 800000 800000 800000 800000 800000 800000 700000 700000 700000 700000 700000 700000 700000 700000 700000 700000 700000 700000 700000 700000 700000 700000 700000 700000 700000 700000 700000 700000 700000 700000 700000 700000 700000 700000 700000 700000 700000 600000 600000 600000 600000 600000 600000 600000 600000 600000 600000 600000 600000 600000 600000 600000 600000 600000 600000 600000 600000 600000 600000 600000 600000 600000 600000 600000 600000 600000 600000 600000 500000 500000 500000 500000 500000 500000 500000 500000 500000 500000 500000 500000 500000 500000 500000 500000 500000 500000 500000 500000 500000 500000 500000 500000 500000 500000 500000 500000 500000 500000 500000 400000 400000 400000 400000 400000 400000 400000 400000 400000 400000 400000 400000 400000 400000 400000 400000 400000 400000 400000 400000 400000 400000 400000 400000 400000 400000 400000 400000 400000 400000 400000 300000 300000 300000 300000 300000 300000 300000 300000 300000 300000 300000 300000 300000 300000 300000 300000 300000 300000 300000 300000 300000 300000 300000 300000 300000 300000 300000 300000 300000 300000 300000 200000 200000 200000 200000 200000 200000 200000 200000 200000 200000 200000 200000 200000 200000 200000 200000 200000 200000 200000 200000 200000 200000 200000 200000 200000 200000 200000 200000 200000 200000 200000 100000 100000 100000 100000 100000 100000 100000 100000 100000 100000 100000 100000 100000 100000 100000 100000 100000 100000 100000 100000 100000 100000 100000 100000 100000 100000 100000 100000 100000 100000 100000 0 0 0 0 0 0 0 0 0 0 0 0 0 0 0 0 0 0 0 0 0 0 0 0 0 0 0 0 0 0 0 
</DataArray>
<DataArray Name="Depth wrt reference" format="ascii" type="Float64">
1e+06 1e+06 1e+06 1e+06 1e+06 1e+06 1e+06 1e+06 1e+06 1e+06 1e+06 1e+06 1e+06 1e+06 1e+06 1e+06 1e+06 1e+06 1e+06 1e+06 1e+06 1e+06 1e+06 1e+06 1e+06 1e+06 1e+06 1e+06 1e+06 1e+06 1e+06 900000 900000 900000 900000 900000 900000 900000 900000 900000 900000 900000 900000 900000 900000 900000 900000 900000 900000 900000 900000 900000 900000 900000 900000 900000 900000 900000 900000 900000 900000 900000 800000 800000 800000 800000 800000 800000 800000 800000 800000 800000 800000 800000 800000 800000 800000 800000 800000 800000 800000 800000 800000 800000 800000 800000 800000 800000 800000 800000 800000 800000 800000 700000 700000 700000 700000 700000 700000 700000 700000 700000 700000 700000 700000 700000 700000 700000 700000 700000 700000 700000 700000 700000 700000 700000 700000 700000 700000 700000 700000 700000 700000 700000 600000 600000 600000 600000 600000 600000 600000 600000 600000 600000 600000 600000 600000 600000 600000 600000 600000 600000 600000 600000 600000 600000 600000 600000 600000 600000 600000 600000 600000 600000 600000 500000 500000 500000 500000 500000 500000 500000 500000 500000 500000 500000 500000 500000 500000 500000 500000 500000 500000 500000 500000 500000 500000 500000 500000 500000 500000 500000 500000 500000 500000 500000 400000 400000 400000 400000 400000 400000 400000 400000 400000 400000 400000 400000 400000 400000 400000 400000 400000 400000 400000 400000 400000 400000 400000 400000 400000 400000 400000 400000 400000 400000 400000 300000 300000 300000 300000 300000 300000 300000 300000 300000 300000 300000 300000 300000 300000 300000 300000 300000 300000 300000 300000 300000 300000 300000 300000 300000 300000 300000 300000 300000 300000 300000 200000 200000 200000 200000 200000 200000 200000 200000 200000 200000 200000 200000 200000 200000 200000 200000 200000 200000 200000 200000 200000 200000 200000 200000 200000 200000 200000 200000 200000 200000 200000 100000 100000 100000 100000 100000 100000 100000 100000 100000 100000 100000 100000 100000 100000 100000 100000 100000 100000 100000 100000 100000 100000 100000 100000 100000 100000 100000 100000 100000 100000 100000 0 0 0 0 0 0 0 0 0 0 0 0 0 0 0 0 0 0 0 0 0 0 0 0 0 0 0 0 0 0 0 
</DataArray>
<DataArray Name="Topography" format="ascii" type="Float64">
0 0 0 0 0 0 0 0 0 0 0 0 0 0 0 0 0 0 0 0 0 0 0 0 0 0 0 0 0 0 0 0 0 0 0 0 0 0 0 0 0 0 0 0 0 0 0 0 0 0 0 0 0 0 0 0 0 0 0 0 0 0 0 0 0 0 0 0 0 0 0 0 0 0 0 0 0 0 0 0 0 0 0 0 0 0 0 0 0 0 0 0 0 0 0 0 0 0 0 0 0 0 0 0 0 0 0 0 0 0 0 0 0 0 0 0 0 0 0 0 0 0 0 0 0 0 0 0 0 0 0 0 0 0 0 0 0 0 0 0 0 0 0 0 0 0 0 0 0 0 0 0 0 0 0 0 0 0 0 0 0 0 0 0 0 0 0 0 0 0 0 0 0 0 0 0 0 0 0 0 0 0 0 0 0 0 0 0 0 0 0 0 0 0 0 0 0 0 0 0 0 0 0 0 0 0 0 0 0 0 0 0 0 0 0 0 0 0 0 0 0 0 0 0 0 0 0 0 0 0 0 0 0 0 0 0 0 0 0 0 0 0 0 0 0 0 0 0 0 0 0 0 0 0 0 0 0 0 0 0 0 0 0 0 0 0 0 0 0 0 0 0 0 0 0 0 0 0 0 0 0 0 0 0 0 0 0 0 0 0 0 0 0 0 0 0 0 0 0 0 0 0 0 0 0 0 0 0 0 0 0 0 0 0 0 0 0 0 0 0 0 0 0 0 0 0 0 0 0 0 0 0 0 0 0 0 0 0 0 0 0 
</DataArray>
<DataArray Name="Temperature" format="ascii" type="Float64">
2105.78 2105.78 2105.78 2105.78 2105.78 2105.78 2105.78 2105.78 2105.78 2105.78 2105.78 2105.78 2105.78 2105.78 2105.78 2105.78 2105.78 2105.78 2105.78 2105.78 2105.78 2105.78 2105.78 2105.78 2105.78 2105.78 2105.78 2105.78 2105.78 2105.78 2105.78 2048.72 2048.72 2048.72 2048.72 2048.72 2048.72 2048.72 2048.72 2048.72 2048.72 2048.72 2034.44 2017.99 2048.72 2048.72 2048.72 2048.72 2048.72 2048.72 2048.72 2048.72 2048.72 2048.72 2048.72 2048.72 2048.72 2048.72 2048.72 2048.72 2048.72 2048.72 1993.21 1993.21 1993.21 1993.21 1993.21 1993.21 1993.21 1993.21 1993.21 1986.91 1506.19 1652.18 1908.19 1981.7 1993.21 1993.21 1993.21 1993.21 1993.21 1993.21 1993.21 1993.21 1993.21 1993.21 1993.21 1993.21 1993.21 1993.21 1993.21 1993.21 1993.21 1939.21 1939.21 1939.21 1939.21 1939.21 1939.21 1939.21 1939.21 1939.21 1939.21 1402.02 1340.15 1738.45 1901.84 1939.21 1939.21 1939.21 1939.21 1939.21 1939.21 1939.21 1939.21 1939.21 1939.21 1939.21 1939.21 1939.21 1939.21 1939.21 1939.21 1939.21 1886.67 1886.67 1886.67 1886.67 1886.67 1886.67 1886.67 1886.67 1886.67 1886.67 1762.07 1098.75 1481.08 1783.32 1872.92 1886.67 1886.67 1886.67 1886.67 1886.67 1886.67 1886.67 1886.67 1886.67 1886.67 1886.67 1886.67 1886.67 1886.67 1886.67 1886.67 1835.55 1835.55 1835.55 1835.55 1835.55 1835.55 1835.55 1835.55 1835.55 1835.55 1835.55 1531.88 1129.3 1591.86 1790.62 1835.55 1835.55 1835.55 1835.55 1835.55 1835.55 1835.55 1835.55 1835.55 1835.55 1835.55 1835.55 1835.55 1835.55 1835.55 1835.55 1785.82 1785.82 1785.82 1785.82 1785.82 1785.82 1785.82 1785.82 1785.82 1785.82 1785.82 1776.15 1083.01 1293.65 1660.86 1770.1 1785.82 1785.82 1785.82 1785.82 1785.82 1785.82 1785.82 1785.82 1785.82 1785.82 1785.82 1785.82 1785.82 1785.82 1785.82 1737.43 1737.43 1737.43 1737.43 1737.43 1737.43 1737.43 1737.43 1737.43 1737.43 1737.43 1737.43 1710.07 879.196 1441.06 1685.47 1733.25 1737.43 1737.43 1737.43 1737.43 1737.43 1737.43 1737.43 1737.43 1737.43 1737.43 1737.43 1737.43 1737.43 1737.43 1690.36 1690.36 1690.36 1690.36 1690.36 1690.36 1690.36 1690.36 1690.36 1690.36 1690.36 1690.36 1690.36 1496.19 1088.73 1538.29 1690.36 1690.36 1690.36 1690.36 1690.36 1690.36 1690.36 1690.36 1690.36 1690.36 1690.36 1690.36 1690.36 1690.36 1690.36 1644.56 1644.56 1644.56 1644.56 1644.56 1644.56 1644.56 1644.56 1644.56 1644.56 1644.56 1644.56 1644.56 1644.56 516.933 1084.12 1644.56 1644.56 1644.56 1644.56 1644.56 1644.56 1644.56 1644.56 1644.56 1644.56 1644.56 1644.56 1644.56 1644.56 1644.56 1600 1600 1600 1600 1600 1600 1600 1600 1600 1600 1600 1600 1600 1600 1600 1600 1600 1600 1600 1600 1600 1600 1600 1600 1600 1600 1600 1600 1600 1600 1600 
</DataArray>
<DataArray Name="velocity" NumberOfComponents="3" format="ascii" type="Float64">
0 0 0 0 0 0 0 0 0 0 0 0 0 0 0 0 0 0 0 0 0 0 0 0 0 0 0 0 0 0 0 0 0 0 0 0 0 0 0 0 0 0 0 0 0 0 0 0 0 0 0 0 0 0 0 0 0 0 0 0 0 0 0 0 0 0 0 0 0 0 0 0 0 0 0 0 0 0 0 0 0 0 0 0 0 0 0 0 0 0 0 0 0 0 0 0 0 0 0 0 0 0 0 0 0 0 0 0 0 0 0 0 0 0 0 0 0 0 0 0 0 0 0 0 0 0 -0.5 -0.866025 0 -0.5 -0.866025 0 0 0 0 0 0 0 0 0 0 0 0 0 0 0 0 0 0 0 0 0 0 0 0 0 0 0 0 0 0 0 0 0 0 0 0 0 0 0 0 0 0 0 0 0 0 0 0 0 0 0 0 0 0 0 0 0 0 0 0 0 0 0 0 0 0 0 0 0 0 0 0 0 0 0 0 0 0 0 0 0 0 0 0 0 -0.5 -0.866025 0 -0.5 -0.866025 0 -0.5 -0.866025 0 -0.5 -0.866025 0 0 0 0 0 0 0 0 0 0 0 0 0 0 0 0 0 0 0 0 0 0 0 0 0 0 0 0 0 0 0 0 0 0 0 0 0 0 0 0 0 0 0 0 0 0 0 0 0 0 0 0 0 0 0 0 0 0 0 0 0 0 0 0 0 0 0 0 0 0 0 0 0 0 0 0 0 0 0 0 0 0 0 0 0 -0.5 -0.866025 0 -0.5 -0.866025 0 -0.5 -0.866025 0 0 0 0 0 0 0 0 0 0 0 0 0 0 0 0 0 0 0 0 0 0 0 0 0 0 0 0 0 0 0 0 0 0 0 0 0 0 0 0 0 0 0 0 0 0 0 0 0 0 0 0 0 0 0 0 0 0 0 0 0 0 0 0 0 0 0 0 0 0 0 0 0 0 0 0 0 0 0 0 0 0 0 0 0 -0.5 -0.866025 0 -0.5 -0.866025 0 -0.5 -0.866025 0 -0.5 -0.866025 0 0 0 0 0 0 0 0 0 0 0 0 0 0 0 0 0 0 0 0 0 0 0 0 0 0 0 0 0 0 0 0 0 0 0 0 0 0 0 0 0 0 0 0 0 0 0 0 0 0 0 0 0 0 0 0 0 0 0 0 0 0 0 0 0 0 0 0 0 0 0 0 0 0 0 0 0 0 0 0 0 0 0 0 0 -0.5 -0.866025 0 -0.5 -0.866025 0 -0.5 -0.866025 0 0 0 0 0 0 0 0 0 0 0 0 0 0 0 0 0 0 0 0 0 0 0 0 0 0 0 0 0 0 0 0 0 0 0 0 0 0 0 0 0 0 0 0 0 0 0 0 0 0 0 0 0 0 0 0 0 0 0 0 0 0 0 0 0 0 0 0 0 0 0 0 0 0 0 0 0 0 0 0 0 0 0 0 0 -0.5 -0.866025 0 -0.5 -0.866025 0 -0.5 -0.866025 0 -0.5 -0.866025 0 0 0 0 0 0 0 0 0 0 0 0 0 0 0 0 0 0 0 0 0 0 0 0 0 0 0 0 0 0 0 0 0 0 0 0 0 0 0 0 0 0 0 0 0 0 0 0 0 0 0 0 0 0 0 0 0 0 0 0 0 0 0 0 0 0 0 0 0 0 0 0 0 0 0 0 0 0 0 0 0 0 0 0 0 -0.5 -0.866025 0 -0.5 -0.866025 0 -0.5 -0.866025 0 -0.5 -0.866025 0 0 0 0 0 0 0 0 0 0 0 0 0 0 0 0 0 0 0 0 0 0 0 0 0 0 0 0 0 0 0 0 0 0 0 0 0 0 0 0 0 0 0 0 0 0 0 0 0 0 0 0 0 0 0 0 0 0 0 0 0 0 0 0 0 0 0 0 0 0 0 0 0 0 0 0 0 0 0 0 0 0 0 0 0 -0.5 -0.866025 0 -0.674276 -0.738479 0 0 0 0 0 0 0 0 0 0 0 0 0 0 0 0 0 0 0 0 0 0 0 0 0 0 0 0 0 0 0 0 0 0 0 0 0 0 0 0 0 0 0 0 0 0 0 0 0 0 0 0 0 0 0 0 0 0 0 0 0 0 0 0 0 0 0 0 0 0 0 0 0 0 0 0 0 0 0 0 0 0 0 0 0 0 0 0 -0.692961 -0.720975 0 -0.891591 -0.452842 0 0 0 0 0 0 0 0 0 0 0 0 0 0 0 0 0 0 0 0 0 0 0 0 0 0 0 0 0 0 0 0 0 0 0 0 0 0 0 0 0 0 0 0 0 0 0 0 0 0 0 0 0 0 0 0 0 0 0 0 0 0 0 0 0 0 0 0 0 0 0 0 0 0 0 0 0 0 0 0 0 0 0 0 0 0 0 0 0 0 0 0 0 0 0 0 0 0 0 0 0 0 0 0 0 0 0 0 0 0 0 0 0 0 0 0 0 0 0 0 0 0 0 0 0 0 0 0 0 0 0 0 0 0 0 0 0 0 0 
</DataArray>
<DataArray Name="Tag" format="ascii" type="Float64">
-1 -1 -1 -1 -1 -1 -1 -1 -1 -1 -1 -1 -1 -1 -1 -1 -1 -1 -1 -1 -1 -1 -1 -1 -1 -1 -1 -1 -1 -1 -1 -1 -1 -1 -1 -1 -1 -1 -1 -1 -1 -1 0 0 -1 -1 -1 -1 -1 -1 -1 -1 -1 -1 -1 -1 -1 -1 -1 -1 -1 -1 -1 -1 -1 -1 -1 -1 -1 -1 -1 0 0 0 0 0 -1 -1 -1 -1 -1 -1 -1 -1 -1 -1 -1 -1 -1 -1 -1 -1 -1 -1 -1 -1 -1 -1 -1 -1 -1 -1 -1 0 0 0 0 -1 -1 -1 -1 -1 -1 -1 -1 -1 -1 -1 -1 -1 -1 -1 -1 -1 -1 -1 -1 -1 -1 -1 -1 -1 -1 -1 0 0 0 0 0 -1 -1 -1 -1 -1 -1 -1 -1 -1 -1 -1 -1 -1 -1 -1 -1 -1 -1 -1 -1 -1 -1 -1 -1 -1 -1 -1 0 0 0 0 -1 -1 -1 -1 -1 -1 -1 -1 -1 -1 -1 -1 -1 -1 -1 -1 -1 -1 -1 -1 -1 -1 -1 -1 -1 -1 -1 0 0 0 0 0 -1 -1 -1 -1 -1 -1 -1 -1 -1 -1 -1 -1 -1 -1 -1 -1 -1 -1 -1 -1 -1 -1 -1 -1 -1 -1 -1 0 0 0 0 0 -1 -1 -1 -1 -1 -1 -1 -1 -1 -1 -1 -1 -1 -1 -1 -1 -1 -1 -1 -1 -1 -1 -1 -1 -1 -1 0 0 0 0 -1 -1 -1 -1 -1 -1 -1 -1 -1 -1 -1 -1 -1 -1 -1 -1 -1 -1 -1 -1 -1 -1 -1 -1 -1 -1 -1 -1 0 0 0 -1 -1 -1 -1 -1 -1 -1 -1 -1 -1 -1 -1 -1 -1 -1 -1 -1 -1 -1 -1 -1 -1 -1 -1 -1 -1 -1 -1 -1 0 0 -1 -1 -1 -1 -1 -1 -1 -1 -1 -1 -1 -1 -1 -1 -1 
</DataArray>
<DataArray Name="Composition 0" format="ascii" type="Float64">
0 0 0 0 0 0 0 0 0 0 0 0 0 0 0 0 0 0 0 0 0 0 0 0 0 0 0 0 0 0 0 0 0 0 0 0 0 0 0 0 0 0 0 0 0 0 0 0 0 0 0 0 0 0 0 0 0 0 0 0 0 0 0 0 0 0 0 0 0 0 0 0 0 0 0 0 0 0 0 0 0 0 0 0 0 0 0 0 0 0 0 0 0 0 0 0 0 0 0 0 0 0 0 0 0 0 0 0 0 0 0 0 0 0 0 0 0 0 0 0 0 0 0 0 0 0 0 0 0 0 0 0 0 0 0 0 0 0 0 0 0 0 0 0 0 0 0 0 0 0 0 0 0 0 0 0 0 0 0 0 0 0 0 0 0 0 0 0 0 0 0 0 0 0 0 0 0 0 0 0 0 0 0 0 0 0 0 0 0 0 0 0 0 0 0 0 0 0 0 0 0 0 0 0 0 0 0 0 0 0 0 0 0 0 0 0 0 0 0 0 0 0 0 0 0 0 0 0 0 0 0 0 0 0 0 0 0 0 0 0 0 0 0 0 0 0 0 0 0 0 0 0 0 0 0 0 0 0 0 0 0 0 0 0 0 0 0 0 0 0 0 0 0 0 0 0 0 0 0 0 0 0 0 0 0 0 0 0 0 0 0 0 0 0 0 0 0 0 0 0 0 0 0 0 0 0 0 0 0 0 0 0 0 0 0 0 0 0 0 0 0 0 0 0 0 0 0 0 0 0 0 0 0 0 0 0 0 0 0 0 0 
</DataArray>
</PointData>
<CellData>
</CellData>
<Points>
<DataArray NumberOfComponents="3" format="ascii" type="Float64">
0 0 0 100000 0 0 200000 0 0 300000 0 0 400000 0 0 500000 0 0 600000 0 0 700000 0 0 800000 0 0 900000 0 0 1e+06 0 0 1.1e+06 0 0 1.2e+06 0 0 1.3e+06 0 0 1.4e+06 0 0 1.5e+06 0 0 1.6e+06 0 0 1.7e+06 0 0 1.8e+06 0 0 1.9e+06 0 0 2e+06 0 0 2.1e+06 0 0 2.2e+06 0 0 2.3e+06 0 0 2.4e+06 0 0 2.5e+06 0 0 2.6e+06 0 0 2.7e+06 0 0 2.8e+06 0 0 2.9e+06 0 0 3e+06 0 0 0 100000 0 100000 100000 0 200000 100000 0 300000 100000 0 400000 100000 0 500000 100000 0 600000 100000 0 700000 100000 0 800000 100000 0 900000 100000 0 1e+06 100000 0 1.1e+06 100000 0 1.2e+06 100000 0 1.3e+06 100000 0 1.4e+06 100000 0 1.5e+06 100000 0 1.6e+06 100000 0 1.7e+06 100000 0 1.8e+06 100000 0 1.9e+06 100000 0 2e+06 100000 0 2.1e+06 100000 0 2.2e+06 100000 0 2.3e+06 100000 0 2.4e+06 100000 0 2.5e+06 100000 0 2.6e+06 100000 0 2.7e+06 100000 0 2.8e+06 100000 0 2.9e+06 100000 0 3e+06 100000 0 0 200000 0 100000 200000 0 200000 200000 0 300000 200000 0 400000 200000 0 500000 200000 0 600000 200000 0 700000 200000 0 800000 200000 0 900000 200000 0 1e+06 200000 0 1.1e+06 200000 0 1.2e+06 200000 0 1.3e+06 200000 0 1.4e+06 200000 0 1.5e+06 200000 0 1.6e+06 200000 0 1.7e+06 200000 0 1.8e+06 200000 0 1.9e+06 200000 0 2e+06 200000 0 2.1e+06 200000 0 2.2e+06 200000 0 2.3e+06 200000 0 2.4e+06 200000 0 2.5e+06 200000 0 2.6e+06 200000 0 2.7e+06 200000 0 2.8e+06 200000 0 2.9e+06 200000 0 3e+06 200000 0 0 300000 0 100000 300000 0 200000 300000 0 300000 300000 0 400000 300000 0 500000 300000 0 600000 300000 0 700000 300000 0 800000 300000 0 900000 300000 0 1e+06 300000 0 1.1e+06 300000 0 1.2e+06 300000 0 1.3e+06 300000 0 1.4e+06 300000 0 1.5e+06 300000 0 1.6e+06 300000 0 1.7e+06 300000 0 1.8e+06 300000 0 1.9e+06 300000 0 2e+06 300000 0 2.1e+06 300000 0 2.2e+06 300000 0 2.3e+06 300000 0 2.4e+06 300000 0 2.5e+06 300000 0 2.6e+06 300000 0 2.7e+06 300000 0 2.8e+06 300000 0 2.9e+06 300000 0 3e+06 300000 0 0 400000 0 100000 400000 0 200000 400000 0 300000 400000 0 400000 400000 0 500000 400000 0 600000 400000 0 700000 400000 0 800000 400000 0 900000 400000 0 1e+06 400000 0 1.1e+06 400000 0 1.2e+06 400000 0 1.3e+06 400000 0 1.4e+06 400000 0 1.5e+06 400000 0 1.6e+06 400000 0 1.7e+06 400000 0 1.8e+06 400000 0 1.9e+06 400000 0 2e+06 400000 0 2.1e+06 400000 0 2.2e+06 400000 0 2.3e+06 400000 0 2.4e+06 400000 0 2.5e+06 400000 0 2.6e+06 400000 0 2.7e+06 400000 0 2.8e+06 400000 0 2.9e+06 400000 0 3e+06 400000 0 0 500000 0 100000 500000 0 200000 500000 0 300000 500000 0 400000 500000 0 500000 500000 0 600000 500000 0 700000 500000 0 800000 500000 0 900000 500000 0 1e+06 500000 0 1.1e+06 500000 0 1.2e+06 500000 0 1.3e+06 500000 0 1.4e+06 500000 0 1.5e+06 500000 0 1.6e+06 500000 0 1.7e+06 500000 0 1.8e+06 500000 0 1.9e+06 500000 0 2e+06 500000 0 2.1e+06 500000 0 2.2e+06 500000 0 2.3e+06 500000 0 2.4e+06 500000 0 2.5e+06 500000 0 2.6e+06 500000 0 2.7e+06 500000 0 2.8e+06 500000 0 2.9e+06 500000 0 3e+06 500000 0 0 600000 0 100000 600000 0 200000 600000 0 300000 600000 0 400000 600000 0 500000 600000 0 600000 600000 0 700000 600000 0 800000 600000 0 900000 600000 0 1e+06 600000 0 1.1e+06 600000 0 1.2e+06 600000 0 1.3e+06 600000 0 1.4e+06 600000 0 1.5e+06 600000 0 1.6e+06 600000 0 1.7e+06 600000 0 1.8e+06 600000 0 1.9e+06 600000 0 2e+06 600000 0 2.1e+06 600000 0 2.2e+06 600000 0 2.3e+06 600000 0 2.4e+06 600000 0 2.5e+06 600000 0 2.6e+06 600000 0 2.7e+06 600000 0 2.8e+06 600000 0 2.9e+06 600000 0 3e+06 600000 0 0 700000 0 100000 700000 0 200000 700000 0 300000 700000 0 400000 700000 0 500000 700000 0 600000 700000 0 700000 700000 0 800000 700000 0 900000 700000 0 1e+06 700000 0 1.1e+06 700000 0 1.2e+06 700000 0 1.3e+06 700000 0 1.4e+06 700000 0 1.5e+06 700000 0 1.6e+06 700000 0 1.7e+06 700000 0 1.8e+06 700000 0 1.9e+06 700000 0 2e+06 700000 0 2.1e+06 700000 0 2.2e+06 700000 0 2.3e+06 700000 0 2.4e+06 700000 0 2.5e+06 700000 0 2.6e+06 700000 0 2.7e+06 700000 0 2.8e+06 700000 0 2.9e+06 700000 0 3e+06 700000 0 0 800000 0 100000 800000 0 200000 800000 0 300000 800000 0 400000 800000 0 500000 800000 0 600000 800000 0 700000 800000 0 800000 800000 0 900000 800000 0 1e+06 800000 0 1.1e+06 800000 0 1.2e+06 800000 0 1.3e+06 800000 0 1.4e+06 800000 0 1.5e+06 800000 0 1.6e+06 800000 0 1.7e+06 800000 0 1.8e+06 800000 0 1.9e+06 800000 0 2e+06 800000 0 2.1e+06 800000 0 2.2e+06 800000 0 2.3e+06 800000 0 2.4e+06 800000 0 2.5e+06 800000 0 2.6e+06 800000 0 2.7e+06 800000 0 2.8e+06 800000 0 2.9e+06 800000 0 3e+06 800000 0 0 900000 0 100000 900000 0 200000 900000 0 300000 900000 0 400000 900000 0 500000 900000 0 600000 900000 0 700000 900000 0 800000 900000 0 900000 900000 0 1e+06 900000 0 1.1e+06 900000 0 1.2e+06 900000 0 1.3e+06 900000 0 1.4e+06 900000 0 1.5e+06 900000 0 1.6e+06 900000 0 1.7e+06 900000 0 1.8e+06 900000 0 1.9e+06 900000 0 2e+06 900000 0 2.1e+06 900000 0 2.2e+06 900000 0 2.3e+06 900000 0 2.4e+06 900000 0 2.5e+06 900000 0 2.6e+06 900000 0 2.7e+06 900000 0 2.8e+06 900000 0 2.9e+06 900000 0 3e+06 900000 0 0 1e+06 0 100000 1e+06 0 200000 1e+06 0 300000 1e+06 0 400000 1e+06 0 500000 1e+06 0 600000 1e+06 0 700000 1e+06 0 800000 1e+06 0 900000 1e+06 0 1e+06 1e+06 0 1.1e+06 1e+06 0 1.2e+06 1e+06 0 1.3e+06 1e+06 0 1.4e+06 1e+06 0 1.5e+06 1e+06 0 1.6e+06 1e+06 0 1.7e+06 1e+06 0 1.8e+06 1e+06 0 1.9e+06 1e+06 0 2e+06 1e+06 0 2.1e+06 1e+06 0 2.2e+06 1e+06 0 2.3e+06 1e+06 0 2.4e+06 1e+06 0 2.5e+06 1e+06 0 2.6e+06 1e+06 0 2.7e+06 1e+06 0 2.8e+06 1e+06 0 2.9e+06 1e+06 0 3e+06 1e+06 0 
</DataArray>
</Points>
<Cells>
<DataArray Name="connectivity" format="ascii" type="Int64">
0 1 32 31 1 2 33 32 2 3 34 33 3 4 35 34 4 5 36 35 5 6 37 36 6 7 38 37 7 8 39 38 8 9 40 39 9 10 41 40 10 11 42 41 11 12 43 42 12 13 44 43 13 14 45 44 14 15 46 45 15 16 47 46 16 17 48 47 17 18 49 48 18 19 50 49 19 20 51 50 20 21 52 51 21 22 53 52 22 23 54 53 23 24 55 54 24 25 56 55 25 26 57 56 26 27 58 57 27 28 59 58 28 29 60 59 29 30 61 60 31 32 63 62 32 33 64 63 33 34 65 64 34 35 66 65 35 36 67 66 36 37 68 67 37 38 69 68 38 39 70 69 39 40 71 70 40 41 72 71 41 42 73 72 42 43 74 73 43 44 75 74 44 45 76 75 45 46 77 76 46 47 78 77 47 48 79 78 48 49 80 79 49 50 81 80 50 51 82 81 51 52 83 82 52 53 84 83 53 54 85 84 54 55 86 85 55 56 87 86 56 57 88 87 57 58 89 88 58 59 90 89 59 60 91 90 60 61 92 91 62 63 94 93 63 64 95 94 64 65 96 95 65 66 97 96 66 67 98 97 67 68 99 98 68 69 100 99 69 70 101 100 70 71 102 101 71 72 103 102 72 73 104 103 73 74 105 104 74 75 106 105 75 76 107 106 76 77 108 107 77 78 109 108 78 79 110 109 79 80 111 110 80 81 112 111 81 82 113 112 82 83 114 113 83 84 115 114 84 85 116 115 85 86 117 116 86 87 118 117 87 88 119 118 88 89 120 119 89 90 121 120 90 91 122 121 91 92 123 122 93 94 125 124 94 95 126 125 95 96 127 126 96 97 128 127 97 98 129 128 98 99 130 129 99 100 131 130 100 101 132 131 101 102 133 132 102 103 134 133 103 104 135 134 104 105 136 135 105 106 137 136 106 107 138 137 107 108 139 138 108 109 140 139 109 110 141 140 110 111 142 141 111 112 143 142 112 113 144 143 113 114 145 144 114 115 146 145 115 116 147 146 116 117 148 147 117 118 149 148 118 119 150 149 119 120 151 150 120 121 152 151 121 122 153 152 122 123 154 153 124 125 156 155 125 126 157 156 126 127 158 157 127 128 159 158 128 129 160 159 129 130 161 160 130 131 162 161 131 132 163 162 132 133 164 163 133 134 165 164 134 135 166 165 135 136 167 166 136 137 168 167 137 138 169 168 138 139 170 169 139 140 171 170 140 141 172 171 141 142 173 172 142 143 174 173 143 144 175 174 144 145 176 175 145 146 177 176 146 147 178 177 147 148 179 178 148 149 180 179 149 150 181 180 150 151 182 181 151 152 183 182 152 153 184 183 153 154 185 184 155 156 187 186 156 157 188 187 157 158 189 188 158 159 190 189 159 160 191 190 160 161 192 191 161 162 193 192 162 163 194 193 163 164 195 194 164 165 196 195 165 166 197 196 166 167 198 197 167 168 199 198 168 169 200 199 169 170 201 200 170 171 202 201 171 172 203 202 172 173 204 203 173 174 205 204 174 175 206 205 175 176 207 206 176 177 208 207 177 178 209 208 178 179 210 209 179 180 211 210 180 181 212 211 181 182 213 212 182 183 214 213 183 184 215 214 184 185 216 215 186 187 218 217 187 188 219 218 188 189 220 219 189 190 221 220 190 191 222 221 191 192 223 222 192 193 224 223 193 194 225 224 194 195 226 225 195 196 227 226 196 197 228 227 197 198 229 228 198 199 230 229 199 200 231 230 200 201 232 231 201 202 233 232 202 203 234 233 203 204 235 234 204 205 236 235 205 206 237 236 206 207 238 237 207 208 239 238 208 209 240 239 209 210 241 240 210 211 242 241 211 212 243 242 212 213 244 243 213 214 245 244 214 215 246 245 215 216 247 246 217 218 249 248 218 219 250 249 219 220 251 250 220 221 252 251 221 222 253 252 222 223 254 253 223 224 255 254 224 225 256 255 225 226 257 256 226 227 258 257 227 228 259 258 228 229 260 259 229 230 261 260 230 231 262 261 231 232 263 262 232 233 264 263 233 234 265 264 234 235 266 265 235 236 267 266 236 237 268 267 237 238 269 268 238 239 270 269 239 240 271 270 240 241 272 271 241 242 273 272 242 243 274 273 243 244 275 274 244 245 276 275 245 246 277 276 246 247 278 277 248 249 280 279 249 250 281 280 250 251 282 281 251 252 283 282 252 253 284 283 253 254 285 284 254 255 286 285 255 256 287 286 256 257 288 287 257 258 289 288 258 259 290 289 259 260 291 290 260 261 292 291 261 262 293 292 262 263 294 293 263 264 295 294 264 265 296 295 265 266 297 296 266 267 298 297 267 268 299 298 268 269 300 299 269 270 301 300 270 271 302 301 271 272 303 302 272 273 304 303 273 274 305 304 274 275 306 305 275 276 307 306 276 277 308 307 277 278 309 308 279 280 311 310 280 281 312 311 281 282 313 312 282 283 314 313 283 284 315 314 284 285 316 315 285 286 317 316 286 287 318 317 287 288 319 318 288 289 320 319 289 290 321 320 290 291 322 321 291 292 323 322 292 293 324 323 293 294 325 324 294 295 326 325 295 296 327 326 296 297 328 327 297 298 329 328 298 299 330 329 299 300 331 330 300 301 332 331 301 302 333 332 302 303 334 333 303 304 335 334 304 305 336 335 305 306 337 336 306 307 338 337 307 308 339 338 308 309 340 339 
</DataArray>
<DataArray Name="offsets" format="ascii" type="Int64">
4 8 12 16 20 24 28 32 36 40 44 48 52 56 60 64 68 72 76 80 84 88 92 96 100 104 108 112 116 120 124 128 132 136 140 144 148 152 156 160 164 168 172 176 180 184 188 192 196 200 204 208 212 216 220 224 228 232 236 240 244 248 252 256 260 264 268 272 276 280 284 288 292 296 300 304 308 312 316 320 324 328 332 336 340 344 348 352 356 360 364 368 372 376 380 384 388 392 396 400 404 408 412 416 420 424 428 432 436 440 444 448 452 456 460 464 468 472 476 480 484 488 492 496 500 504 508 512 516 520 524 528 532 536 540 544 548 552 556 560 564 568 572 576 580 584 588 592 596 600 604 608 612 616 620 624 628 632 636 640 644 648 652 656 660 664 668 672 676 680 684 688 692 696 700 704 708 712 716 720 724 728 732 736 740 744 748 752 756 760 764 768 772 776 780 784 788 792 796 800 804 808 812 816 820 824 828 832 836 840 844 848 852 856 860 864 868 872 876 880 884 888 892 896 900 904 908 912 916 920 924 928 932 936 940 944 948 952 956 960 964 968 972 976 980 984 988 992 996 1000 1004 1008 1012 1016 1020 1024 1028 1032 1036 1040 1044 1048 1052 1056 1060 1064 1068 1072 1076 1080 1084 1088 1092 1096 1100 1104 1108 1112 1116 1120 1124 1128 1132 1136 1140 1144 1148 1152 1156 1160 1164 1168 1172 1176 1180 1184 1188 1192 1196 1200 
</DataArray>
<DataArray Name="types" format="ascii" type="Int8">
9 9 9 9 9 9 9 9 9 9 9 9 9 9 9 9 9 9 9 9 9 9 9 9 9 9 9 9 9 9 9 9 9 9 9 9 9 9 9 9 9 9 9 9 9 9 9 9 9 9 9 9 9 9 9 9 9 9 9 9 9 9 9 9 9 9 9 9 9 9 9 9 9 9 9 9 9 9 9 9 9 9 9 9 9 9 9 9 9 9 9 9 9 9 9 9 9 9 9 9 9 9 9 9 9 9 9 9 9 9 9 9 9 9 9 9 9 9 9 9 9 9 9 9 9 9 9 9 9 9 9 9 9 9 9 9 9 9 9 9 9 9 9 9 9 9 9 9 9 9 9 9 9 9 9 9 9 9 9 9 9 9 9 9 9 9 9 9 9 9 9 9 9 9 9 9 9 9 9 9 9 9 9 9 9 9 9 9 9 9 9 9 9 9 9 9 9 9 9 9 9 9 9 9 9 9 9 9 9 9 9 9 9 9 9 9 9 9 9 9 9 9 9 9 9 9 9 9 9 9 9 9 9 9 9 9 9 9 9 9 9 9 9 9 9 9 9 9 9 9 9 9 9 9 9 9 9 9 9 9 9 9 9 9 9 9 9 9 9 9 9 9 9 9 9 9 9 9 9 9 9 9 9 9 9 9 9 9 9 9 9 9 9 9 9 9 9 9 9 9 
</DataArray>
</Cells>
</Piece>
</UnstructuredGrid>
</VTKFile>
