<?xml version="1.0"?>
<VTKFile byte_order="LittleEndian" type="UnstructuredGrid" version="0.1">
<UnstructuredGrid>
<Piece NumberOfCells="0" NumberOfPoints="0">
<PointData>
<DataArray Name="Depth" format="ascii" type="Float64">

</DataArray>
<DataArray Name="Temperature" format="ascii" type="Float64">

</DataArray>
<DataArray Name="velocity" NumberOfComponents="3" format="ascii" type="Float64">

</DataArray>
<DataArray Name="Tag" format="ascii" type="Float64">

</DataArray>
<DataArray Name="Composition 0" format="ascii" type="Float64">

</DataArray>
<DataArray Name="Composition 1" format="ascii" type="Float64">

</DataArray>
<DataArray Name="Composition 2" format="ascii" type="Float64">

</DataArray>
<DataArray Name="Composition 3" format="ascii" type="Float64">

</DataArray>
<DataArray Name="Composition 4" format="ascii" type="Float64">

</DataArray>
<DataArray Name="Composition 5" format="ascii" type="Float64">

</DataArray>
<DataArray Name="Composition 6" format="ascii" type="Float64">

</DataArray>
</PointData>
<CellData>
</CellData>
<Points>
<DataArray NumberOfComponents="3" format="ascii" type="Float64">

</DataArray>
</Points>
<Cells>
<DataArray Name="connectivity" format="ascii" type="Int64">

</DataArray>
<DataArray Name="offsets" format="ascii" type="Int64">

</DataArray>
<DataArray Name="types" format="ascii" type="Int8">

</DataArray>
</Cells>
</Piece>
</UnstructuredGrid>
</VTKFile>
