<?xml version="1.0"?>
<VTKFile byte_order="LittleEndian" type="UnstructuredGrid" version="0.1">
<UnstructuredGrid>
<Piece NumberOfCells="376" NumberOfPoints="422">
<PointData>
<DataArray Name="Depth" format="ascii" type="Float64">
350000 350000 330556 330556 350000 330556 350000 330556 350000 330556 330556 330556 311111 311111 311111 311111 311111 311111 311111 330556 311111 311111 291667 291667 291667 291667 291667 291667 291667 291667 291667 311111 291667 291667 291667 272222 272222 272222 272222 272222 272222 272222 272222 272222 272222 272222 272222 291667 272222 272222 272222 252778 252778 252778 252778 252778 252778 252778 252778 252778 252778 252778 252778 252778 252778 252778 272222 252778 252778 252778 233333 233333 233333 233333 233333 233333 233333 233333 233333 233333 233333 233333 233333 233333 233333 233333 233333 233333 233333 233333 213889 213889 233333 213889 213889 213889 213889 213889 213889 213889 213889 213889 213889 213889 213889 213889 213889 213889 213889 213889 213889 213889 213889 213889 194444 194444 213889 194444 213889 194444 213889 194444 213889 194444 213889 194444 194444 194444 194444 194444 194444 194444 194444 194444 194444 194444 194444 194444 194444 194444 194444 194444 194444 194444 194444 194444 194444 175000 175000 175000 175000 175000 175000 175000 175000 175000 175000 175000 175000 175000 175000 175000 175000 175000 175000 175000 175000 175000 175000 175000 175000 175000 175000 175000 175000 155556 155556 155556 155556 155556 155556 155556 155556 155556 155556 155556 155556 155556 155556 155556 155556 155556 155556 155556 155556 155556 155556 155556 155556 155556 155556 155556 155556 136111 136111 136111 136111 136111 136111 136111 136111 136111 136111 136111 136111 136111 136111 136111 136111 136111 136111 136111 136111 136111 136111 136111 136111 136111 136111 136111 136111 116667 116667 116667 116667 116667 116667 116667 116667 116667 116667 116667 116667 116667 116667 116667 116667 116667 116667 116667 116667 116667 116667 116667 116667 116667 116667 116667 116667 97222.2 97222.2 97222.2 97222.2 97222.2 97222.2 97222.2 97222.2 97222.2 97222.2 97222.2 97222.2 97222.2 97222.2 97222.2 97222.2 97222.2 97222.2 97222.2 97222.2 97222.2 97222.2 97222.2 97222.2 97222.2 97222.2 97222.2 97222.2 77777.8 77777.8 77777.8 77777.8 77777.8 77777.8 77777.8 77777.8 77777.8 77777.8 77777.8 77777.8 77777.8 77777.8 77777.8 77777.8 77777.8 77777.8 77777.8 77777.8 77777.8 77777.8 77777.8 77777.8 77777.8 77777.8 77777.8 77777.8 58333.3 58333.3 58333.3 58333.3 58333.3 58333.3 58333.3 58333.3 58333.3 58333.3 58333.3 58333.3 58333.3 58333.3 58333.3 58333.3 58333.3 58333.3 58333.3 58333.3 58333.3 58333.3 58333.3 58333.3 58333.3 58333.3 58333.3 58333.3 38888.9 38888.9 38888.9 38888.9 38888.9 38888.9 38888.9 38888.9 38888.9 38888.9 38888.9 38888.9 38888.9 38888.9 38888.9 38888.9 38888.9 38888.9 38888.9 38888.9 38888.9 38888.9 38888.9 38888.9 38888.9 38888.9 38888.9 38888.9 19444.4 19444.4 19444.4 19444.4 19444.4 19444.4 19444.4 19444.4 19444.4 19444.4 19444.4 19444.4 19444.4 19444.4 19444.4 19444.4 19444.4 19444.4 19444.4 19444.4 19444.4 19444.4 19444.4 19444.4 19444.4 19444.4 0 0 0 0 0 0 0 0 0 0 0 0 0 0 0 0 0 0 0 0 0 0 0 0 0 
</DataArray>
<DataArray Name="Temperature" format="ascii" type="Float64">
1764.74 1764.74 600 1755.16 600 600 1764.74 600 1764.74 1755.16 1755.16 1755.16 600 1745.63 600 600 600 600 600 1755.16 1745.63 1745.63 600 1736.15 600 600 600 600 600 600 600 1745.63 1736.15 1736.15 1736.15 600 1726.72 600 600 600 600 600 600 600 600 600 600 1736.15 1726.72 1726.72 1726.72 600 1717.35 600 600 600 600 600 600 600 600 600 600 600 600 600 1726.72 1717.35 1717.35 1717.35 600 1708.02 600 600 600 600 600 600 600 600 600 600 600 600 600 600 600 600 1708.02 1708.02 600 1698.75 1708.02 600 600 600 600 600 600 600 600 600 600 600 600 600 600 600 600 600 600 600 1698.75 1698.75 600 1689.53 1698.75 600 1698.75 600 1698.75 600 1698.75 600 1698.75 600 600 600 600 600 600 600 600 600 600 600 600 600 600 600 600 600 600 600 600 600 1689.53 600 1680.35 600 600 600 600 600 600 600 600 600 600 600 600 600 600 600 600 600 600 600 600 600 600 600 600 1680.35 1680.35 600 1671.23 600 600 600 600 600 600 600 600 600 600 600 600 600 600 600 600 600 600 600 600 600 600 600 1671.23 1671.23 1671.23 600 1662.15 600 600 600 600 600 600 600 600 600 600 600 600 600 600 600 600 600 600 600 600 600 1662.15 1662.15 1662.15 1662.15 1662.15 600 1653.13 600 600 600 600 600 600 600 600 600 600 600 600 600 600 600 600 600 600 600 600 1653.13 1653.13 1653.13 1653.13 1653.13 1653.13 600 1644.15 600 600 600 600 600 600 600 600 600 600 600 600 600 600 600 600 600 600 1644.15 1644.15 1644.15 1644.15 1644.15 1644.15 1644.15 1644.15 600 1635.23 600 600 600 600 600 600 600 600 600 600 600 600 600 600 600 600 1635.23 1635.23 1635.23 1635.23 1635.23 1635.23 1635.23 1635.23 1635.23 1635.23 600 1626.35 600 600 600 600 600 600 600 600 600 600 600 600 600 600 1626.35 1626.35 1626.35 1626.35 1626.35 1626.35 1626.35 1626.35 1626.35 1626.35 1626.35 1626.35 600 1617.52 600 600 600 600 600 600 600 600 600 600 600 600 1617.52 1617.52 1617.52 1617.52 1617.52 1617.52 1617.52 1617.52 1617.52 1617.52 1617.52 1617.52 1617.52 1617.52 600 1608.73 600 600 600 600 600 600 600 600 1608.73 1608.73 1608.73 1608.73 1608.73 1608.73 1608.73 1608.73 1608.73 1608.73 1608.73 1608.73 1608.73 1608.73 1608.73 1608.73 1600 1600 1600 1600 1600 1600 1600 1600 1600 1600 1600 1600 1600 1600 1600 1600 1600 1600 1600 1600 1600 1600 1600 1600 1600 
</DataArray>
<DataArray Name="Tag" format="ascii" type="Float64">
-1 -1 1 -1 1 1 -1 1 -1 -1 -1 -1 1 -1 1 1 1 1 1 -1 -1 -1 1 -1 1 1 1 1 1 1 1 -1 -1 -1 -1 1 -1 1 1 1 1 1 1 1 1 1 1 -1 -1 -1 -1 1 -1 1 1 1 1 1 1 1 1 1 1 1 1 1 -1 -1 -1 -1 1 -1 1 1 1 1 1 1 1 1 1 1 1 1 1 1 1 1 -1 -1 1 -1 -1 1 1 1 1 1 1 1 1 1 1 1 1 1 1 1 1 1 1 1 -1 -1 1 0 -1 1 -1 1 -1 1 -1 1 -1 1 1 1 1 1 1 1 1 1 1 1 1 1 1 1 1 1 1 1 1 1 1 1 0 1 1 1 1 1 1 1 1 1 1 1 1 1 1 1 1 1 1 1 1 1 1 1 1 1 1 1 0 1 1 1 1 1 1 1 1 1 1 1 1 1 1 1 1 1 1 1 1 1 1 1 1 1 1 1 0 1 1 1 1 1 1 1 1 1 1 1 1 1 1 1 1 1 1 1 1 1 1 1 1 1 1 1 0 1 1 1 1 1 1 1 1 1 1 1 1 1 1 1 1 1 1 1 1 1 1 1 1 1 1 1 0 1 1 1 1 1 1 1 1 1 1 1 1 1 1 1 1 1 1 1 1 1 1 1 1 1 1 1 0 1 1 1 1 1 1 1 1 1 1 1 1 1 1 1 1 1 1 1 1 1 1 1 1 1 1 1 0 1 1 1 1 1 1 1 1 1 1 1 1 1 1 1 1 1 1 1 1 1 1 1 1 1 0 1 0 1 1 1 1 1 1 1 1 1 1 1 1 1 1 1 1 1 1 1 1 1 1 1 0 0 0 1 0 1 1 1 1 1 1 1 1 1 1 1 1 1 1 1 1 1 1 1 1 1 1 0 0 1 0 1 1 1 1 1 1 1 1 1 1 1 1 1 1 1 1 1 1 1 1 0 0 0 
</DataArray>
<DataArray Name="Composition 0" format="ascii" type="Float64">
0 0 0.000185741 0 0.000160203 0.00106177 0 0.00633767 0 0 0 0 5.21466e-05 0 0.0002569 0.00133593 0.00727902 0.0404745 0.202498 0 0 0 9.49682e-05 0 0.000422914 0.00199453 0.00987763 0.0498419 0.224596 0.626115 0.909986 0 0 0 0 5.45767e-05 0 0.000205516 0.000825774 0.00352258 0.0157799 0.0713705 0.279638 0.673187 0.919682 0.985186 0.997522 0 0 0 0 4.92402e-05 0 0.000155268 0.000525694 0.00190332 0.00732267 0.029454 0.116893 0.378964 0.747767 0.938025 0.987803 0.997797 0.999622 0.999938 0 0 0 0 6.98746e-05 0 0.000183275 0.000518772 0.00157909 0.00514382 0.0177573 0.0631449 0.210819 0.528794 0.832843 0.958871 0.991354 0.998311 0.999686 0.999944 1.25 1.25 0 0 7.74084e-05 0 0 0.000154984 0.000337006 0.000793768 0.00201886 0.00552122 0.0161115 0.0492137 0.148818 0.386228 0.706443 0.906989 0.97661 0.994721 0.998882 0.999775 1.25 1.25 1.25 1.25 0 0 9.53891e-05 0 0 0.000101613 0 0.000118445 0 0.000150994 0 0.000210333 0 0.00031978 0.000529852 0.000955086 0.00186885 0.00395861 0.00903999 0.0220895 0.0567702 0.146847 0.345088 0.632644 0.857002 0.956799 0.988596 0.997218 0.99936 0.99986 1.25 1.25 1.25 1.25 0.999906 0.00127324 0 0.00135339 0.00156932 0.00198398 0.00273215 0.00409301 0.00665783 0.0117258 0.022253 0.0450884 0.0956171 0.203154 0.397787 0.647193 0.844894 0.945214 0.98309 0.995213 0.998731 0.999682 0.999925 1.25 1.25 1.25 1.25 0.999866 0.998281 0.0167514 0 0.0177545 0.0204386 0.0255248 0.0345024 0.0502723 0.0783674 0.128863 0.217681 0.360996 0.55271 0.743978 0.879974 0.951925 0.982793 0.994336 0.99826 0.999497 0.999863 1.25 1.25 1.25 1.25 1.25 0.999769 0.997333 0.968187 0.185451 0 0.194271 0.216972 0.256744 0.318252 0.405927 0.519724 0.649357 0.773741 0.871843 0.935708 0.970949 0.987984 0.995397 0.998355 0.999449 0.999826 0.999948 1.25 1.25 1.25 1.25 0.99995 0.999515 0.994988 0.947285 0.605171 0.752633 0 0.762842 0.786382 0.820114 0.859281 0.898358 0.932483 0.958801 0.976868 0.98801 0.994241 0.997427 0.998927 0.999581 0.999847 0.999947 1.25 1.25 1.25 1.25 1.25 0.999858 0.998765 0.988648 0.897818 0.454388 0.0692101 0.975996 0 0.977229 0.979969 0.983664 0.987651 0.991345 0.994374 0.996604 0.998095 0.999005 0.999515 0.999779 0.999906 1.25 1.25 1.25 1.25 1.25 1.25 0.999932 0.999508 0.99621 0.969393 0.781016 0.27341 0.035955 0.00346953 0.998163 0 0.998257 0.998465 0.998745 0.999047 0.999328 0.999559 0.999731 0.999847 0.999919 1.25 1.25 1.25 1.25 1.25 1.25 1.25 0.999946 0.99968 0.997959 0.986109 0.905499 0.546603 0.124163 0.0153809 0.00161444 0.00015762 0.999862 0 0.999869 0.999884 0.999905 0.999927 0.999948 1.25 1.25 1.25 1.25 1.25 1.25 1.25 1.25 1.25 0.999929 0.999658 0.998209 0.989921 0.941212 0.707709 0.254057 0.0427654 0.00544893 0.00062931 6.79932e-05 0 1.25 0 1.25 1.25 1.25 1.25 1.25 1.25 1.25 1.25 1.25 1.25 1.25 1.25 0.999847 0.9994 0.997437 0.988184 0.943058 0.751861 0.339221 0.0747158 0.0116826 0.0016118 0.000206157 0 0 0 1.25 0 1.25 1.25 1.25 1.25 1.25 1.25 1.25 1.25 0.99993 0.999814 0.99946 0.998282 0.994042 0.977723 0.913818 0.702204 0.326045 0.0840663 0.0158833 0.00262985 0.000400998 5.6965e-05 0 0 0.999955 0 0.999951 0.999942 0.999924 0.99989 0.999823 0.999688 0.999391 0.998696 0.996931 0.992097 0.977915 0.934554 0.808366 0.533511 0.221894 0.0615037 0.013719 0.00272543 0.000497859 8.44035e-05 0 0 0 
</DataArray>
<DataArray Name="Composition 1" format="ascii" type="Float64">
0 0 0 0 0 0 0 0 0 0 0 0 0 0 0 0 0 0 0 0 0 0 0 0 0 0 0 0 0 0 0 0 0 0 0 0 0 0 0 0 0 0 0 0 0 0 0 0 0 0 0 0 0 0 0 0 0 0 0 0 0 0 0 0 0 0 0 0 0 0 0 0 0 0 0 0 0 0 0 0 0 0 0 0 0 0 0 0 0 0 0 0 0 0 0 0 0 0 0 0 0 0 0 0 0 0 0 0 0 0 0 0 0 0 0 0 0 0 0 0 0 0 0 0 0 0 0 0 0 0 0 0 0 0 0 0 0 0 0 0 0 0 0 0 0 0 0 0 0 0 0 0 0 0 0 0 0 0 0 0 0 0 0 0 0 0 0 0 0 0 0 0 0 0 0 0 0 0 0 0 0 0 0 0 0 0 0 0 0 0 0 0 0 0 0 0 0 0 0 0 0 0 0 0 0 0 0 0 0 0 0 0 0 0 0 0 0 0 0 0 0 0 0 0 0 0 0 0 0 0 0 0 0 0 0 0 0 0 0 0 0 0 0 0 0 0 0 0 0 0 0 0 0 0 0 0 0 0 0 0 0 0 0 0 0 0 0 0 0 0 0 0 0 0 0 0 0 0 0 0 0 0 0 0 0 0 0 0 0 0 0 0 0 0 0 0 0 0 0 0 0 0 0 0 0 0 0 0 0 0 0 0 0 0 0 0 0 0 0 0 0 0 0 0 0 0 0 0 0 0 0 0 0 0 0 0 0 0 0 0 0 0 0 0 0 0 0 0 0 0 0 0 0 0 0 0 0 0 0 0 0 0 0 0 0 0 0 0 0 0 0 0 0 0 0 0 0 0 0 0 0 0 0 0 0 0 0 0 0 0 0 0 0 0 0 0 0 0 0 0 0 0 0 0 0 0 0 0 0 0 0 0 0 0 0 0 0 0 0 0 0 0 
</DataArray>
<DataArray Name="Composition 2" format="ascii" type="Float64">
0 0 0 0 0 0 0 0 0 0 0 0 0 0 0 0 0 0 0 0 0 0 0 0 0 0 0 0 0 0 0 0 0 0 0 0 0 0 0 0 0 0 0 0 0 0 0 0 0 0 0 0 0 0 0 0 0 0 0 0 0 0 0 0 0 0 0 0 0 0 0 0 0 0 0 0 0 0 0 0 0 0 0 0 0 0 0 0 0 0 0 0 0 0 0 0 0 0 0 0 0 0 0 0 0 0 0 0 0 0 0 0 0 0 0 0 0 0 0 0 0 0 0 0 0 0 0 0 0 0 0 0 0 0 0 0 0 0 0 0 0 0 0 0 0 0 0 0 0 0 0 0 0 0 0 0 0 0 0 0 0 0 0 0 0 0 0 0 0 0 0 0 0 0 0 0 0 0 0 0 0 0 0 0 0 0 0 0 0 0 0 0 0 0 0 0 0 0 0 0 0 0 0 0 0 0 0 0 0 0 0 0 0 0 0 0 0 0 0 0 0 0 0 0 0 0 0 0 0 0 0 0 0 0 0 0 0 0 0 0 0 0 0 0 0 0 0 0 0 0 0 0 0 0 0 0 0 0 0 0 0 0 0 0 0 0 0 0 0 0 0 0 0 0 0 0 0 0 0 0 0 0 0 0 0 0 0 0 0 0 0 0 0 0 0 0 0 0 0 0 0 0 0 0 0 0 0 0 0 0 0 0 0 0 0 0 0 0 0 0 0 0 0 0 0 0 0 0 0 0 0 0 0 0 0 0 0 0 0 0 0 0 0 0 0 0 0 0 0 0 0 0 0 0 0 0 0 0 0 0 0 0 0 0 0 0 0 0 0 0 0 0 0 0 0 0 0 0 0 0 0 0 0 0 0 0 0 0 0 0 0 0 0 0 0 0 0 0 0 0 0 0 0 0 0 0 0 0 0 0 0 0 0 0 0 0 0 0 0 0 0 0 
</DataArray>
<DataArray Name="Composition 3" format="ascii" type="Float64">
0 0 0 0 0 0 0 0 0 0 0 0 0 0 0 0 0 0 0 0 0 0 0 0 0 0 0 0 0 0 0 0 0 0 0 0 0 0 0 0 0 0 0 0 0 0 0 0 0 0 0 0 0 0 0 0 0 0 0 0 0 0 0 0 0 0 0 0 0 0 0 0 0 0 0 0 0 0 0 0 0 0 0 0 0 0 0 0 0 0 0 0 0 0 0 0 0 0 0 0 0 0 0 0 0 0 0 0 0 0 0 0 0 0 0 0 0 0 0 0 0 0 0 0 0 0 0 0 0 0 0 0 0 0 0 0 0 0 0 0 0 0 0 0 0 0 0 0 0 0 0 0 0 0 0 0 0 0 0 0 0 0 0 0 0 0 0 0 0 0 0 0 0 0 0 0 0 0 0 0 0 0 0 0 0 0 0 0 0 0 0 0 0 0 0 0 0 0 0 0 0 0 0 0 0 0 0 0 0 0 0 0 0 0 0 0 0 0 0 0 0 0 0 0 0 0 0 0 0 0 0 0 0 0 0 0 0 0 0 0 0 0 0 0 0 0 0 0 0 0 0 0 0 0 0 0 0 0 0 0 0 0 0 0 0 0 0 0 0 0 0 0 0 0 0 0 0 0 0 0 0 0 0 0 0 0 0 0 0 0 0 0 0 0 0 0 0 0 0 0 0 0 0 0 0 0 0 0 0 0 0 0 0 0 0 0 0 0 0 0 0 0 0 0 0 0 0 0 0 0 0 0 0 0 0 0 0 0 0 0 0 0 0 0 0 0 0 0 0 0 0 0 0 0 0 0 0 0 0 0 0 0 0 0 0 0 0 0 0 0 0 0 1 0 0 0 0 0 0 0 0 0 0 0 0 0 0 0 0 0 0 0 0 0 0 1 1 0 1 0 0 0 0 0 0 0 0 0 0 0 0 0 0 0 0 0 0 0 0 1 1 1 
</DataArray>
<DataArray Name="Composition 4" format="ascii" type="Float64">
0 0 0 0 0 0 0 0 0 0 0 0 0 0 0 0 0 0 0 0 0 0 0 0 0 0 0 0 0 0 0 0 0 0 0 0 0 0 0 0 0 0 0 0 0 0 0 0 0 0 0 0 0 0 0 0 0 0 0 0 0 0 0 0 0 0 0 0 0 0 0 0 0 0 0 0 0 0 0 0 0 0 0 0 0 0 0 0 0 0 0 0 0 0 0 0 0 0 0 0 0 0 0 0 0 0 0 0 0 0 0 0 0 0 0 1 0 0 0 0 0 0 0 0 0 0 0 0 0 0 0 0 0 0 0 0 0 0 0 0 0 0 0 0 0 0 0 0 1 0 0 0 0 0 0 0 0 0 0 0 0 0 0 0 0 0 0 0 0 0 0 0 0 0 0 0 1 0 0 0 0 0 0 0 0 0 0 0 0 0 0 0 0 0 0 0 0 0 0 0 0 0 0 0 1 0 0 0 0 0 0 0 0 0 0 0 0 0 0 0 0 0 0 0 0 0 0 0 0 0 0 0 1 0 0 0 0 0 0 0 0 0 0 0 0 0 0 0 0 0 0 0 0 0 0 0 0 0 0 0 1 0 0 0 0 0 0 0 0 0 0 0 0 0 0 0 0 0 0 0 0 0 0 0 0 0 0 0 1 0 0 0 0 0 0 0 0 0 0 0 0 0 0 0 0 0 0 0 0 0 0 0 0 0 0 0 1 0 0 0 0 0 0 0 0 0 0 0 0 0 0 0 0 0 0 0 0 0 0 0 0 0 1 0 1 0 0 0 0 0 0 0 0 0 0 0 0 0 0 0 0 0 0 0 0 0 0 0 1 1 1 0 0 0 0 0 0 0 0 0 0 0 0 0 0 0 0 0 0 0 0 0 0 0 0 0 0 0 0 0 0 0 0 0 0 0 0 0 0 0 0 0 0 0 0 0 0 0 0 0 0 0 
</DataArray>
<DataArray Name="Composition 5" format="ascii" type="Float64">
0 0 0 0 0 0 0 0 0 0 0 0 0 0 0 0 0 0 0 0 0 0 0 0 0 0 0 0 0 0 0 0 0 0 0 0 0 0 0 0 0 0 0 0 0 0 0 0 0 0 0 0 0 0 0 0 0 0 0 0 0 0 0 0 0 0 0 0 0 0 0 0 0 0 0 0 0 0 0 0 0 0 0 0 0 0 0 0 0 0 0 0 0 0 0 0 0 0 0 0 0 0 0 0 0 0 0 0 0 0 0 0 0 0 0 0 0 0 0 0 0 0 0 0 0 0 0 0 0 0 0 0 0 0 0 0 0 0 0 0 0 0 0 0 0 0 0 0 0 0 0 0 0 0 0 0 0 0 0 0 0 0 0 0 0 0 0 0 0 0 0 0 0 0 0 0 0 0 0 0 0 0 0 0 0 0 0 0 0 0 0 0 0 0 0 0 0 0 0 0 0 0 0 0 0 0 0 0 0 0 0 0 0 0 0 0 0 0 0 0 0 0 0 0 0 0 0 0 0 0 0 0 0 0 0 0 0 0 0 0 0 0 0 0 0 0 0 0 0 0 0 0 0 0 0 0 0 0 0 0 0 0 0 0 0 0 0 0 0 0 0 0 0 0 0 0 0 0 0 0 0 0 0 0 0 0 0 0 0 0 0 0 0 0 0 0 0 0 0 0 0 0 0 0 0 0 0 0 0 0 0 0 0 0 0 0 0 0 0 0 0 0 0 0 0 0 0 0 0 0 0 0 0 0 0 0 0 0 0 0 0 0 0 0 0 0 0 0 0 0 0 0 0 0 0 0 0 0 0 0 0 0 0 0 0 0 0 0 0 0 0 0 0 0 0 0 0 0 0 0 0 0 0 0 0 0 0 0 0 0 0 0 0 0 0 0 0 0 0 0 0 0 0 0 0 0 0 0 0 0 0 0 0 0 0 0 0 0 0 0 0 0 
</DataArray>
<DataArray Name="Composition 6" format="ascii" type="Float64">
0 0 0 0 0 0 0 0 0 0 0 0 0 0 0 0 0 0 0 0 0 0 0 0 0 0 0 0 0 0 0 0 0 0 0 0 0 0 0 0 0 0 0 0 0 0 0 0 0 0 0 0 0 0 0 0 0 0 0 0 0 0 0 0 0 0 0 0 0 0 0 0 0 0 0 0 0 0 0 0 0 0 0 0 0 0 0 0 0 0 0 0 0 0 0 0 0 0 0 0 0 0 0 0 0 0 0 0 0 0 0 0 0 0 0 1.5 0 0 0 0 0 0 0 0 0 0 0 0 0 0 0 0 0 0 0 0 0 0 0 0 0 0 0 0 0 0 0 0 1.5 0 0 0 0 0 0 0 0 0 0 0 0 0 0 0 0 0 0 0 0 0 0 0 0 0 0 0 1.5 0 0 0 0 0 0 0 0 0 0 0 0 0 0 0 0 0 0 0 0 0 0 0 0 0 0 0 0.5 0 0 0 0 0 0 0 0 0 0 0 0 0 0 0 0 0 0 0 0 0 0 0 0 0 0 0 0.5 0 0 0 0 0 0 0 0 0 0 0 0 0 0 0 0 0 0 0 0 0 0 0 0 0 0 0 0.5 0 0 0 0 0 0 0 0 0 0 0 0 0 0 0 0 0 0 0 0 0 0 0 0 0 0 0 0.5 0 0 0 0 0 0 0 0 0 0 0 0 0 0 0 0 0 0 0 0 0 0 0 0 0 0 0 1 0 0 0 0 0 0 0 0 0 0 0 0 0 0 0 0 0 0 0 0 0 0 0 0 0 1 0 1 0 0 0 0 0 0 0 0 0 0 0 0 0 0 0 0 0 0 0 0 0 0 0 1 1 1 0 0 0 0 0 0 0 0 0 0 0 0 0 0 0 0 0 0 0 0 0 0 0 0 0 0 0 0 0 0 0 0 0 0 0 0 0 0 0 0 0 0 0 0 0 0 0 0 0 0 0 
</DataArray>
</PointData>
<CellData>
</CellData>
<Points>
<DataArray NumberOfComponents="3" format="ascii" type="Float64">
392857 0 0 412500 0 0 412500 19444.4 0 392857 19444.4 0 432143 0 0 432143 19444.4 0 451786 0 0 451786 19444.4 0 471429 0 0 471429 19444.4 0 353571 19444.4 0 373214 19444.4 0 373214 38888.9 0 353571 38888.9 0 392857 38888.9 0 412500 38888.9 0 432143 38888.9 0 451786 38888.9 0 471429 38888.9 0 491071 19444.4 0 491071 38888.9 0 333929 38888.9 0 353571 58333.3 0 333929 58333.3 0 373214 58333.3 0 392857 58333.3 0 412500 58333.3 0 432143 58333.3 0 451786 58333.3 0 471429 58333.3 0 491071 58333.3 0 510714 38888.9 0 510714 58333.3 0 294643 58333.3 0 314286 58333.3 0 314286 77777.8 0 294643 77777.8 0 333929 77777.8 0 353571 77777.8 0 373214 77777.8 0 392857 77777.8 0 412500 77777.8 0 432143 77777.8 0 451786 77777.8 0 471429 77777.8 0 491071 77777.8 0 510714 77777.8 0 530357 58333.3 0 530357 77777.8 0 255357 77777.8 0 275000 77777.8 0 275000 97222.2 0 255357 97222.2 0 294643 97222.2 0 314286 97222.2 0 333929 97222.2 0 353571 97222.2 0 373214 97222.2 0 392857 97222.2 0 412500 97222.2 0 432143 97222.2 0 451786 97222.2 0 471429 97222.2 0 491071 97222.2 0 510714 97222.2 0 530357 97222.2 0 550000 77777.8 0 550000 97222.2 0 216071 97222.2 0 235714 97222.2 0 235714 116667 0 216071 116667 0 255357 116667 0 275000 116667 0 294643 116667 0 314286 116667 0 333929 116667 0 353571 116667 0 373214 116667 0 392857 116667 0 412500 116667 0 432143 116667 0 451786 116667 0 471429 116667 0 491071 116667 0 510714 116667 0 530357 116667 0 550000 116667 0 157143 116667 0 176786 116667 0 176786 136111 0 157143 136111 0 196429 116667 0 196429 136111 0 216071 136111 0 235714 136111 0 255357 136111 0 275000 136111 0 294643 136111 0 314286 136111 0 333929 136111 0 353571 136111 0 373214 136111 0 392857 136111 0 412500 136111 0 432143 136111 0 451786 136111 0 471429 136111 0 491071 136111 0 510714 136111 0 530357 136111 0 550000 136111 0 19642.9 136111 0 39285.7 136111 0 39285.7 155556 0 19642.9 155556 0 58928.6 136111 0 58928.6 155556 0 78571.4 136111 0 78571.4 155556 0 98214.3 136111 0 98214.3 155556 0 117857 136111 0 117857 155556 0 137500 136111 0 137500 155556 0 157143 155556 0 176786 155556 0 196429 155556 0 216071 155556 0 235714 155556 0 255357 155556 0 275000 155556 0 294643 155556 0 314286 155556 0 333929 155556 0 353571 155556 0 373214 155556 0 392857 155556 0 412500 155556 0 432143 155556 0 451786 155556 0 471429 155556 0 491071 155556 0 510714 155556 0 530357 155556 0 550000 155556 0 39285.7 175000 0 19642.9 175000 0 58928.6 175000 0 78571.4 175000 0 98214.3 175000 0 117857 175000 0 137500 175000 0 157143 175000 0 176786 175000 0 196429 175000 0 216071 175000 0 235714 175000 0 255357 175000 0 275000 175000 0 294643 175000 0 314286 175000 0 333929 175000 0 353571 175000 0 373214 175000 0 392857 175000 0 412500 175000 0 432143 175000 0 451786 175000 0 471429 175000 0 491071 175000 0 510714 175000 0 530357 175000 0 550000 175000 0 39285.7 194444 0 19642.9 194444 0 58928.6 194444 0 78571.4 194444 0 98214.3 194444 0 117857 194444 0 137500 194444 0 157143 194444 0 176786 194444 0 196429 194444 0 216071 194444 0 235714 194444 0 255357 194444 0 275000 194444 0 294643 194444 0 314286 194444 0 333929 194444 0 353571 194444 0 373214 194444 0 392857 194444 0 412500 194444 0 432143 194444 0 451786 194444 0 471429 194444 0 491071 194444 0 510714 194444 0 530357 194444 0 550000 194444 0 39285.7 213889 0 19642.9 213889 0 58928.6 213889 0 78571.4 213889 0 98214.3 213889 0 117857 213889 0 137500 213889 0 157143 213889 0 176786 213889 0 196429 213889 0 216071 213889 0 235714 213889 0 255357 213889 0 275000 213889 0 294643 213889 0 314286 213889 0 333929 213889 0 353571 213889 0 373214 213889 0 392857 213889 0 412500 213889 0 432143 213889 0 451786 213889 0 471429 213889 0 491071 213889 0 510714 213889 0 530357 213889 0 550000 213889 0 39285.7 233333 0 19642.9 233333 0 58928.6 233333 0 78571.4 233333 0 98214.3 233333 0 117857 233333 0 137500 233333 0 157143 233333 0 176786 233333 0 196429 233333 0 216071 233333 0 235714 233333 0 255357 233333 0 275000 233333 0 294643 233333 0 314286 233333 0 333929 233333 0 353571 233333 0 373214 233333 0 392857 233333 0 412500 233333 0 432143 233333 0 451786 233333 0 471429 233333 0 491071 233333 0 510714 233333 0 530357 233333 0 550000 233333 0 39285.7 252778 0 19642.9 252778 0 58928.6 252778 0 78571.4 252778 0 98214.3 252778 0 117857 252778 0 137500 252778 0 157143 252778 0 176786 252778 0 196429 252778 0 216071 252778 0 235714 252778 0 255357 252778 0 275000 252778 0 294643 252778 0 314286 252778 0 333929 252778 0 353571 252778 0 373214 252778 0 392857 252778 0 412500 252778 0 432143 252778 0 451786 252778 0 471429 252778 0 491071 252778 0 510714 252778 0 530357 252778 0 550000 252778 0 39285.7 272222 0 19642.9 272222 0 58928.6 272222 0 78571.4 272222 0 98214.3 272222 0 117857 272222 0 137500 272222 0 157143 272222 0 176786 272222 0 196429 272222 0 216071 272222 0 235714 272222 0 255357 272222 0 275000 272222 0 294643 272222 0 314286 272222 0 333929 272222 0 353571 272222 0 373214 272222 0 392857 272222 0 412500 272222 0 432143 272222 0 451786 272222 0 471429 272222 0 491071 272222 0 510714 272222 0 530357 272222 0 550000 272222 0 39285.7 291667 0 19642.9 291667 0 58928.6 291667 0 78571.4 291667 0 98214.3 291667 0 117857 291667 0 137500 291667 0 157143 291667 0 176786 291667 0 196429 291667 0 216071 291667 0 235714 291667 0 255357 291667 0 275000 291667 0 294643 291667 0 314286 291667 0 333929 291667 0 353571 291667 0 373214 291667 0 392857 291667 0 412500 291667 0 432143 291667 0 451786 291667 0 471429 291667 0 491071 291667 0 510714 291667 0 530357 291667 0 550000 291667 0 39285.7 311111 0 19642.9 311111 0 58928.6 311111 0 78571.4 311111 0 98214.3 311111 0 117857 311111 0 137500 311111 0 157143 311111 0 176786 311111 0 196429 311111 0 216071 311111 0 235714 311111 0 255357 311111 0 275000 311111 0 294643 311111 0 314286 311111 0 333929 311111 0 353571 311111 0 373214 311111 0 392857 311111 0 412500 311111 0 432143 311111 0 451786 311111 0 471429 311111 0 491071 311111 0 510714 311111 0 530357 311111 0 550000 311111 0 39285.7 330556 0 19642.9 330556 0 58928.6 330556 0 78571.4 330556 0 98214.3 330556 0 117857 330556 0 137500 330556 0 157143 330556 0 176786 330556 0 196429 330556 0 216071 330556 0 235714 330556 0 255357 330556 0 275000 330556 0 294643 330556 0 314286 330556 0 333929 330556 0 353571 330556 0 373214 330556 0 392857 330556 0 412500 330556 0 432143 330556 0 451786 330556 0 471429 330556 0 491071 330556 0 510714 330556 0 39285.7 350000 0 19642.9 350000 0 58928.6 350000 0 78571.4 350000 0 98214.3 350000 0 117857 350000 0 137500 350000 0 157143 350000 0 176786 350000 0 196429 350000 0 216071 350000 0 235714 350000 0 255357 350000 0 275000 350000 0 294643 350000 0 314286 350000 0 333929 350000 0 353571 350000 0 373214 350000 0 392857 350000 0 412500 350000 0 432143 350000 0 451786 350000 0 471429 350000 0 491071 350000 0 
</DataArray>
</Points>
<Cells>
<DataArray Name="connectivity" format="ascii" type="Int64">
0 1 2 3 1 4 5 2 4 6 7 5 6 8 9 7 10 11 12 13 11 3 14 12 3 2 15 14 2 5 16 15 5 7 17 16 7 9 18 17 9 19 20 18 21 13 22 23 13 12 24 22 12 14 25 24 14 15 26 25 15 16 27 26 16 17 28 27 17 18 29 28 18 20 30 29 20 31 32 30 33 34 35 36 34 23 37 35 23 22 38 37 22 24 39 38 24 25 40 39 25 26 41 40 26 27 42 41 27 28 43 42 28 29 44 43 29 30 45 44 30 32 46 45 32 47 48 46 49 50 51 52 50 36 53 51 36 35 54 53 35 37 55 54 37 38 56 55 38 39 57 56 39 40 58 57 40 41 59 58 41 42 60 59 42 43 61 60 43 44 62 61 44 45 63 62 45 46 64 63 46 48 65 64 48 66 67 65 68 69 70 71 69 52 72 70 52 51 73 72 51 53 74 73 53 54 75 74 54 55 76 75 55 56 77 76 56 57 78 77 57 58 79 78 58 59 80 79 59 60 81 80 60 61 82 81 61 62 83 82 62 63 84 83 63 64 85 84 64 65 86 85 65 67 87 86 88 89 90 91 89 92 93 90 92 71 94 93 71 70 95 94 70 72 96 95 72 73 97 96 73 74 98 97 74 75 99 98 75 76 100 99 76 77 101 100 77 78 102 101 78 79 103 102 79 80 104 103 80 81 105 104 81 82 106 105 82 83 107 106 83 84 108 107 84 85 109 108 85 86 110 109 86 87 111 110 112 113 114 115 113 116 117 114 116 118 119 117 118 120 121 119 120 122 123 121 122 124 125 123 124 91 126 125 91 90 127 126 90 93 128 127 93 94 129 128 94 95 130 129 95 96 131 130 96 97 132 131 97 98 133 132 98 99 134 133 99 100 135 134 100 101 136 135 101 102 137 136 102 103 138 137 103 104 139 138 104 105 140 139 105 106 141 140 106 107 142 141 107 108 143 142 108 109 144 143 109 110 145 144 110 111 146 145 115 114 147 148 114 117 149 147 117 119 150 149 119 121 151 150 121 123 152 151 123 125 153 152 125 126 154 153 126 127 155 154 127 128 156 155 128 129 157 156 129 130 158 157 130 131 159 158 131 132 160 159 132 133 161 160 133 134 162 161 134 135 163 162 135 136 164 163 136 137 165 164 137 138 166 165 138 139 167 166 139 140 168 167 140 141 169 168 141 142 170 169 142 143 171 170 143 144 172 171 144 145 173 172 145 146 174 173 148 147 175 176 147 149 177 175 149 150 178 177 150 151 179 178 151 152 180 179 152 153 181 180 153 154 182 181 154 155 183 182 155 156 184 183 156 157 185 184 157 158 186 185 158 159 187 186 159 160 188 187 160 161 189 188 161 162 190 189 162 163 191 190 163 164 192 191 164 165 193 192 165 166 194 193 166 167 195 194 167 168 196 195 168 169 197 196 169 170 198 197 170 171 199 198 171 172 200 199 172 173 201 200 173 174 202 201 176 175 203 204 175 177 205 203 177 178 206 205 178 179 207 206 179 180 208 207 180 181 209 208 181 182 210 209 182 183 211 210 183 184 212 211 184 185 213 212 185 186 214 213 186 187 215 214 187 188 216 215 188 189 217 216 189 190 218 217 190 191 219 218 191 192 220 219 192 193 221 220 193 194 222 221 194 195 223 222 195 196 224 223 196 197 225 224 197 198 226 225 198 199 227 226 199 200 228 227 200 201 229 228 201 202 230 229 204 203 231 232 203 205 233 231 205 206 234 233 206 207 235 234 207 208 236 235 208 209 237 236 209 210 238 237 210 211 239 238 211 212 240 239 212 213 241 240 213 214 242 241 214 215 243 242 215 216 244 243 216 217 245 244 217 218 246 245 218 219 247 246 219 220 248 247 220 221 249 248 221 222 250 249 222 223 251 250 223 224 252 251 224 225 253 252 225 226 254 253 226 227 255 254 227 228 256 255 228 229 257 256 229 230 258 257 232 231 259 260 231 233 261 259 233 234 262 261 234 235 263 262 235 236 264 263 236 237 265 264 237 238 266 265 238 239 267 266 239 240 268 267 240 241 269 268 241 242 270 269 242 243 271 270 243 244 272 271 244 245 273 272 245 246 274 273 246 247 275 274 247 248 276 275 248 249 277 276 249 250 278 277 250 251 279 278 251 252 280 279 252 253 281 280 253 254 282 281 254 255 283 282 255 256 284 283 256 257 285 284 257 258 286 285 260 259 287 288 259 261 289 287 261 262 290 289 262 263 291 290 263 264 292 291 264 265 293 292 265 266 294 293 266 267 295 294 267 268 296 295 268 269 297 296 269 270 298 297 270 271 299 298 271 272 300 299 272 273 301 300 273 274 302 301 274 275 303 302 275 276 304 303 276 277 305 304 277 278 306 305 278 279 307 306 279 280 308 307 280 281 309 308 281 282 310 309 282 283 311 310 283 284 312 311 284 285 313 312 285 286 314 313 288 287 315 316 287 289 317 315 289 290 318 317 290 291 319 318 291 292 320 319 292 293 321 320 293 294 322 321 294 295 323 322 295 296 324 323 296 297 325 324 297 298 326 325 298 299 327 326 299 300 328 327 300 301 329 328 301 302 330 329 302 303 331 330 303 304 332 331 304 305 333 332 305 306 334 333 306 307 335 334 307 308 336 335 308 309 337 336 309 310 338 337 310 311 339 338 311 312 340 339 312 313 341 340 313 314 342 341 316 315 343 344 315 317 345 343 317 318 346 345 318 319 347 346 319 320 348 347 320 321 349 348 321 322 350 349 322 323 351 350 323 324 352 351 324 325 353 352 325 326 354 353 326 327 355 354 327 328 356 355 328 329 357 356 329 330 358 357 330 331 359 358 331 332 360 359 332 333 361 360 333 334 362 361 334 335 363 362 335 336 364 363 336 337 365 364 337 338 366 365 338 339 367 366 339 340 368 367 340 341 369 368 341 342 370 369 344 343 371 372 343 345 373 371 345 346 374 373 346 347 375 374 347 348 376 375 348 349 377 376 349 350 378 377 350 351 379 378 351 352 380 379 352 353 381 380 353 354 382 381 354 355 383 382 355 356 384 383 356 357 385 384 357 358 386 385 358 359 387 386 359 360 388 387 360 361 389 388 361 362 390 389 362 363 391 390 363 364 392 391 364 365 393 392 365 366 394 393 366 367 395 394 367 368 396 395 372 371 397 398 371 373 399 397 373 374 400 399 374 375 401 400 375 376 402 401 376 377 403 402 377 378 404 403 378 379 405 404 379 380 406 405 380 381 407 406 381 382 408 407 382 383 409 408 383 384 410 409 384 385 411 410 385 386 412 411 386 387 413 412 387 388 414 413 388 389 415 414 389 390 416 415 390 391 417 416 391 392 418 417 392 393 419 418 393 394 420 419 394 395 421 420 
</DataArray>
<DataArray Name="offsets" format="ascii" type="Int64">
4 8 12 16 20 24 28 32 36 40 44 48 52 56 60 64 68 72 76 80 84 88 92 96 100 104 108 112 116 120 124 128 132 136 140 144 148 152 156 160 164 168 172 176 180 184 188 192 196 200 204 208 212 216 220 224 228 232 236 240 244 248 252 256 260 264 268 272 276 280 284 288 292 296 300 304 308 312 316 320 324 328 332 336 340 344 348 352 356 360 364 368 372 376 380 384 388 392 396 400 404 408 412 416 420 424 428 432 436 440 444 448 452 456 460 464 468 472 476 480 484 488 492 496 500 504 508 512 516 520 524 528 532 536 540 544 548 552 556 560 564 568 572 576 580 584 588 592 596 600 604 608 612 616 620 624 628 632 636 640 644 648 652 656 660 664 668 672 676 680 684 688 692 696 700 704 708 712 716 720 724 728 732 736 740 744 748 752 756 760 764 768 772 776 780 784 788 792 796 800 804 808 812 816 820 824 828 832 836 840 844 848 852 856 860 864 868 872 876 880 884 888 892 896 900 904 908 912 916 920 924 928 932 936 940 944 948 952 956 960 964 968 972 976 980 984 988 992 996 1000 1004 1008 1012 1016 1020 1024 1028 1032 1036 1040 1044 1048 1052 1056 1060 1064 1068 1072 1076 1080 1084 1088 1092 1096 1100 1104 1108 1112 1116 1120 1124 1128 1132 1136 1140 1144 1148 1152 1156 1160 1164 1168 1172 1176 1180 1184 1188 1192 1196 1200 1204 1208 1212 1216 1220 1224 1228 1232 1236 1240 1244 1248 1252 1256 1260 1264 1268 1272 1276 1280 1284 1288 1292 1296 1300 1304 1308 1312 1316 1320 1324 1328 1332 1336 1340 1344 1348 1352 1356 1360 1364 1368 1372 1376 1380 1384 1388 1392 1396 1400 1404 1408 1412 1416 1420 1424 1428 1432 1436 1440 1444 1448 1452 1456 1460 1464 1468 1472 1476 1480 1484 1488 1492 1496 1500 1504 
</DataArray>
<DataArray Name="types" format="ascii" type="Int8">