<?xml version="1.0"?>
<VTKFile byte_order="LittleEndian" type="UnstructuredGrid" version="0.1">
<UnstructuredGrid>
<Piece NumberOfCells="159" NumberOfPoints="330">
<PointData>
<DataArray Name="Depth" format="ascii" type="Float64">
330556 330556 311111 311111 330556 311111 291667 291667 291667 272222 272222 252778 252778 272222 252778 272222 272222 252778 252778 272222 252778 272222 272222 252778 252778 272222 252778 233333 233333 233333 233333 233333 233333 233333 233333 233333 213889 213889 194444 194444 213889 213889 194444 194444 213889 194444 213889 213889 194444 194444 213889 194444 213889 213889 194444 194444 213889 194444 213889 213889 194444 194444 213889 194444 213889 213889 194444 194444 213889 194444 175000 175000 175000 175000 175000 175000 175000 175000 175000 175000 175000 175000 175000 175000 175000 175000 175000 175000 175000 155556 155556 175000 155556 155556 155556 136111 136111 155556 155556 136111 136111 155556 136111 155556 155556 136111 136111 155556 136111 155556 155556 136111 136111 155556 136111 155556 155556 136111 136111 155556 136111 155556 155556 136111 136111 155556 136111 155556 155556 136111 136111 155556 136111 136111 136111 136111 116667 116667 116667 116667 116667 116667 116667 116667 116667 116667 116667 116667 116667 116667 116667 116667 116667 116667 116667 116667 116667 97222.2 97222.2 116667 97222.2 116667 116667 97222.2 97222.2 116667 97222.2 116667 116667 97222.2 97222.2 116667 97222.2 97222.2 97222.2 77777.8 77777.8 97222.2 97222.2 77777.8 77777.8 97222.2 77777.8 97222.2 97222.2 77777.8 77777.8 97222.2 77777.8 97222.2 97222.2 77777.8 77777.8 97222.2 77777.8 97222.2 97222.2 77777.8 77777.8 97222.2 77777.8 97222.2 97222.2 77777.8 77777.8 97222.2 77777.8 97222.2 97222.2 77777.8 77777.8 77777.8 77777.8 77777.8 77777.8 77777.8 77777.8 77777.8 77777.8 77777.8 58333.3 58333.3 58333.3 58333.3 58333.3 58333.3 58333.3 58333.3 58333.3 58333.3 58333.3 58333.3 58333.3 58333.3 58333.3 58333.3 58333.3 58333.3 58333.3 58333.3 58333.3 58333.3 58333.3 38888.9 38888.9 38888.9 38888.9 38888.9 38888.9 38888.9 38888.9 38888.9 58333.3 38888.9 38888.9 58333.3 38888.9 58333.3 58333.3 38888.9 38888.9 58333.3 38888.9 38888.9 38888.9 19444.4 19444.4 38888.9 38888.9 19444.4 19444.4 38888.9 19444.4 38888.9 38888.9 19444.4 19444.4 38888.9 19444.4 38888.9 38888.9 19444.4 19444.4 38888.9 19444.4 38888.9 38888.9 19444.4 19444.4 19444.4 19444.4 19444.4 19444.4 19444.4 19444.4 19444.4 19444.4 19444.4 19444.4 19444.4 19444.4 19444.4 19444.4 19444.4 0 0 0 0 0 0 0 0 0 0 0 0 0 0 0 0 0 0 0 0 0 0 0 0 0 0 
</DataArray>
<DataArray Name="Temperature" format="ascii" type="Float64">
1755.16 1755.16 1745.63 1745.63 1755.16 1745.63 1736.15 1736.15 1736.15 1726.72 1726.72 1717.35 1717.35 1726.72 1717.35 1726.72 1726.72 1717.35 1717.35 1726.72 1717.35 1726.72 1726.72 1717.35 1717.35 1726.72 1717.35 1708.02 1708.02 1708.02 1708.02 1708.02 1708.02 600 1708.02 600 1698.75 1698.75 1689.53 1689.53 1698.75 1698.75 600 600 1698.75 600 1698.75 1698.75 600 600 1698.75 600 1698.75 600 600 600 600 600 600 600 600 600 600 600 600 600 600 600 600 600 1680.35 1680.35 600 600 600 600 600 600 600 600 600 600 600 600 600 600 600 600 600 1671.23 600 1680.35 1671.23 1671.23 1671.23 1662.15 1662.15 600 600 600 600 600 600 600 600 600 600 600 600 600 600 600 600 600 600 600 600 600 600 600 600 600 600 600 600 600 600 600 600 600 600 600 600 1662.15 1662.15 1662.15 1653.13 1653.13 600 600 600 600 600 600 600 600 600 600 600 600 600 600 600 600 600 600 600 600 600 600 1644.15 600 1653.13 1644.15 1644.15 1653.13 1644.15 1653.13 1653.13 1644.15 1644.15 1653.13 1644.15 1644.15 1644.15 1635.23 1635.23 600 600 600 600 600 600 600 600 600 600 600 600 600 600 600 600 600 600 600 600 600 600 600 600 600 600 600 600 600 600 600 600 600 600 1635.23 1635.23 1635.23 1635.23 1635.23 1635.23 1635.23 1635.23 1635.23 1626.35 1626.35 600 600 600 600 600 600 600 600 600 600 600 600 600 600 600 1626.35 1626.35 1626.35 1626.35 1626.35 1626.35 600 600 1617.52 1617.52 1617.52 1617.52 1617.52 1617.52 1617.52 1626.35 1617.52 1617.52 1626.35 1617.52 1626.35 1626.35 1617.52 1617.52 1626.35 1617.52 1617.52 1617.52 1608.73 1608.73 600 600 600 600 600 600 600 600 600 600 600 600 600 600 600 600 600 600 600 600 1608.73 1608.73 1608.73 1608.73 1608.73 1608.73 1608.73 1608.73 1608.73 1608.73 1608.73 1608.73 1608.73 1608.73 1608.73 1608.73 1608.73 1600 1600 1600 1600 1600 1600 1600 1600 1600 1600 1600 1600 1600 1600 1600 1600 1600 1600 1600 1600 1600 1600 1600 1600 1600 1600 
</DataArray>
<DataArray Name="velocity" NumberOfComponents="3" format="ascii" type="Float64">
0 0 2 0 0 0 0 0 0 0 0 2 0 0 0 0 0 2 0 0 0 0 0 2 0 0 0 0 0 0 0 0 0 0 0 0 0 0 0 2 0 0 2 0 0 0 0 0 2 0 0 0 0 0 2 0 0 0 0 0 2 0 0 0 0 0 2 0 0 0 0 0 0 0 0 0 0 0 0 0 0 0 0 0 0 0 0 0 0 2 0 0 0 0 0 0 2 0 0 2 0 0 0 0 0 2 0 0 0 0 0 2 0 0 0 0 0 2 0 0 0 0 0 2 0 0 0 0 0 2 0 0 0 0 0 0 0 0 0 0 0 0 0 0 0 0 0 0 0 0 0 0 0 0 0 0 0 2 0 0 0 0 0 2 0 0 0 0 0 2 0 0 0 0 0 0 2 0 0 2 0 0 0 0 0 2 0 0 0 0 0 2 0 0 0 0 0 2 0 0 0 0 0 2 0 0 0 0 0 2 0 0 0 2 0 0 0 0 0 0 0 0 0 0 0 0 0 0 0 0 0 0 0 0 0 0 0 0 0 0 0 0 0 2 0 0 2 0 0 2 0 0 0 2 0 0 0 0 0 2 0 0 0 0 0 0 2 0 0 2 0 0 0 0 0 2 0 0 0 0 0 2 0 0 0 0 0 2 0 0 0 2 0 0 2 0 0 2 0 0 2 0 0 0 0 0 0 0 0 0 0 0 0 0 0 0 0 0 0 0 0 0 0 0 0 0 0 0 0 0 
</DataArray>
<DataArray Name="Tag" format="ascii" type="Float64">
0 0 0 0 0 0 0 0 0 0 0 0 0 0 0 0 0 0 0 0 0 0 0 0 0 0 0 0 0 0 0 0 0 0 0 0 0 0 0 0 0 0 0 0 0 0 0 0 0 0 0 0 0 0 0 0 0 0 0 0 0 0 0 0 0 0 0 0 0 0 0 0 0 0 0 0 0 0 0 0 0 0 0 0 0 0 0 0 0 0 0 0 0 0 0 0 0 0 0 0 0 0 0 0 0 0 0 0 0 0 0 0 0 0 0 0 0 0 0 0 0 0 0 0 0 0 0 0 0 0 0 0 0 0 0 0 0 0 0 0 0 0 0 0 0 0 0 0 0 0 0 0 0 0 0 0 0 0 0 0 0 0 0 0 0 0 0 0 0 0 0 0 0 0 0 0 0 0 0 0 0 0 0 0 0 0 0 0 0 0 0 0 0 0 0 0 0 0 0 0 0 0 0 0 0 0 0 0 0 0 0 0 0 0 0 0 0 0 0 0 0 0 0 0 0 0 0 0 0 0 0 0 0 0 0 0 0 0 0 0 0 0 0 0 0 0 0 0 0 0 0 0 0 0 0 0 0 0 0 0 0 0 0 0 0 0 0 0 0 0 0 0 0 0 0 0 0 0 0 0 0 0 0 0 0 0 0 0 0 0 0 0 0 0 0 0 0 0 0 0 0 0 0 0 0 0 0 0 0 0 0 0 0 0 0 0 0 0 0 0 0 0 0 0 0 0 0 0 0 0 
</DataArray>
<DataArray Name="Composition 0" format="ascii" type="Float64">
0 0 0 0 0 0 0 0 0 0 0 0 0 0 0 0 0 0 0 0 0 0 0 0 0 0 0 0 0 0 0 0 0 2 0 2 0 0 0 0 0 0 2 2 0 2 0 0 2 2 0 2 0 2 2 2 2 2 2 2 2 2 2 2 2 2 2 2 2 2 0 0 2 2 2 2 2 2 2 2 2 2 2 2 2 2 2 2 2 2 2 2 2 0 0 0 0 2 2 2 2 2 2 2 2 2 2 2 2 2 2 2 2 2 2 2 2 2 2 2 2 2 2 2 2 2 2 2 2 2 2 2 2 2 2 2 0 0 2 2 2 2 2 2 2 2 2 2 2 2 2 2 2 2 2 2 2 2 2 2 2 2 2 2 2 2 2 2 2 2 2 2 2 0 0 0 0 2 2 2 2 2 2 2 2 2 2 2 2 2 2 2 2 2 2 2 2 2 2 2 2 2 2 2 2 2 2 2 2 2 2 2 2 2 2 2 2 2 2 2 0 0 2 2 2 2 2 2 2 2 2 2 2 2 2 2 2 2 2 2 2 2 2 2 2 2 2 2 2 2 2 2 2 2 2 2 2 2 2 0 2 2 0 0 0 0 0 2 2 2 2 2 2 2 2 2 2 2 2 2 2 2 2 2 2 2 2 2 2 2 2 2 2 2 2 2 2 2 2 2 2 0 0 0 0 0 2 2 2 2 2 2 2 2 2 2 2 2 2 2 2 2 2 2 2 2 2 0 0 0 
</DataArray>
<DataArray Name="Composition 1" format="ascii" type="Float64">
0 0 0 0 0 0 0 0 0 0 0 0 0 0 0 0 0 0 0 0 0 0 0 0 0 0 0 0 0 0 0 0 0 0 0 0 0 0 0 0 0 0 0 0 0 0 0 0 0 0 0 0 0 0 0 0 0 0 0 0 0 0 0 0 0 0 0 0 0 0 0 0 0 0 0 0 0 0 0 0 0 0 0 0 0 0 0 0 0 0 0 0 0 0 0 0 0 0 0 0 0 0 0 0 0 0 0 0 0 0 0 0 0 0 0 0 0 0 0 0 0 0 0 0 0 0 0 0 0 0 0 0 0 0 0 0 0 0 0 0 0 0 0 0 0 0 0 0 0 0 0 0 0 0 0 0 0 0 0 0 0 0 0 0 0 0 0 0 0 0 0 0 0 0 0 0 0 0 0 0 0 0 0 0 0 0 0 0 0 0 0 0 0 0 0 0 0 0 0 0 0 0 0 0 0 0 0 0 0 0 0 0 0 0 0 0 0 0 0 0 0 0 0 0 0 0 0 0 0 0 0 0 0 0 0 0 0 0 0 0 0 0 0 0 0 0 0 0 0 0 0 0 0 0 0 0 0 0 0 0 0 0 0 0 0 0 0 0 0 0 0 0 0 0 0 0 0 0 0 0 0 0 0 0 0 0 0 0 0 0 0 0 0 0 0 0 0 0 0 0 0 0 0 0 0 0 0 0 0 0 0 0 0 0 0 0 0 0 0 0 0 0 0 0 0 0 0 0 0 0 
</DataArray>
<DataArray Name="Composition 2" format="ascii" type="Float64">
-1 -1 -1 -1 -1 -1 -1 -1 -1 -1 -1 -1 -1 -1 -1 -1 -1 -1 -1 -1 -1 -1 -1 -1 -1 -1 -1 -1 -1 -1 -1 -1 -1 2 -1 2 -1 -1 1 1 -1 -1 2 2 -1 2 -1 -1 2 2 -1 2 -1 2 2 2 2 2 2 2 2 2 2 2 2 2 2 2 2 2 1 1 2 2 2 2 2 2 2 2 2 2 2 2 2 2 2 2 2 2 2 2 2 1 1 1 1 2 2 2 2 2 2 2 2 2 2 2 2 2 2 2 2 2 2 2 2 2 2 2 2 2 2 2 2 2 2 2 2 2 2 2 2 2 2 2 1 1 2 2 2 2 2 2 2 2 2 2 2 2 2 2 2 2 2 2 2 2 2 2 2 2 2 2 2 2 2 2 2 2 2 2 2 1 1 1 1 2 2 2 2 2 2 2 2 2 2 2 2 2 2 2 2 2 2 2 2 2 2 2 2 2 2 2 2 2 2 2 2 2 2 2 2 2 2 2 2 2 2 2 1 1 2 2 2 2 2 2 2 2 2 2 2 2 2 2 2 2 2 2 2 2 2 2 2 2 2 2 2 2 2 2 2 2 2 2 2 2 2 1 2 2 1 1 1 1 1 2 2 2 2 2 2 2 2 2 2 2 2 2 2 2 2 2 2 2 2 2 2 2 2 2 2 2 2 2 2 2 2 2 2 1 1 1 1 1 2 2 2 2 2 2 2 2 2 2 2 2 2 2 2 2 2 2 2 2 2 1 1 1 
</DataArray>
<DataArray Name="Composition 3" format="ascii" type="Float64">
0 0 0 0 0 0 0 0 0 0 0 0 0 0 0 0 0 0 0 0 0 0 0 0 0 0 0 0 0 0 0 0 0 6.98746e-05 0 0.000183275 0 0 0 0 0 0 0.000101613 9.53891e-05 0 0.000118445 0 0 0.000210333 0.000150994 0 0.00031978 0 7.74084e-05 0.000955086 0.000529852 0.000154984 0.00186885 0.000337006 0.000793768 0.00903999 0.00395861 0.00201886 0.0220895 0.00552122 0.0161115 0.146847 0.0567702 0.0492137 0.345088 0 0 0.00135339 0.00127324 0.00156932 0.00273215 0.00198398 0.00409301 0.0117258 0.00665783 0.022253 0.0956171 0.0450884 0.203154 0.647193 0.397787 0.844894 1.25 1.25 0.999769 1.25 0.999866 0.997333 0 0 0 0 0.0167514 0.0177545 0.194271 0.185451 0.0204386 0.216972 0.0255248 0.0345024 0.318252 0.256744 0.0502723 0.405927 0.0783674 0.128863 0.649357 0.519724 0.217681 0.773741 0.360996 0.55271 0.935708 0.871843 0.743978 0.970949 0.879974 0.951925 0.995397 0.987984 0.982793 0.998355 0.994336 0.99826 0.999826 0.999449 0.999497 0.999948 0.994988 0.999515 0.947285 0 0 0.762842 0.752633 0.786382 0.859281 0.820114 0.898358 0.958801 0.932483 0.976868 0.994241 0.98801 0.997427 0.999581 0.998927 0.999847 1.25 0.999947 1.25 1.25 1.25 1.25 1.25 0.999932 1.25 0.999858 0.99621 0.999508 0.998765 0.969393 0.988648 0.897818 0.27341 0.781016 0.454388 0.035955 0 0 0 0 0.975996 0.977229 0.998257 0.998163 0.979969 0.998465 0.983664 0.987651 0.999047 0.998745 0.991345 0.999328 0.994374 0.996604 0.999731 0.999559 0.998095 0.999847 0.999005 0.999515 1.25 0.999919 0.999779 1.25 0.999906 1.25 1.25 1.25 1.25 1.25 1.25 1.25 1.25 1.25 0.999946 0.99968 0.997959 0.986109 0.905499 0.546603 0.0153809 0.124163 0.00161444 0 0 0.999869 0.999862 0.999884 0.999927 0.999905 0.999948 1.25 1.25 1.25 1.25 1.25 1.25 1.25 1.25 1.25 0.999658 0.999929 0.998209 0.941212 0.989921 0.707709 1.25 1.25 0.999847 0.997437 0.9994 0.988184 0.751861 0.943058 0.339221 0.254057 0.0116826 0.0747158 0.0427654 0.0016118 0.00544893 0.00062931 0 0.000206157 6.79932e-05 0 0 0 0 0 1.25 1.25 1.25 1.25 1.25 1.25 1.25 1.25 1.25 1.25 1.25 1.25 1.25 1.25 1.25 1.25 1.25 1.25 1.25 1.25 0.999814 0.99993 0.99946 0.998282 0.994042 0.977723 0.913818 0.702204 0.326045 0.0840663 0.0158833 0.00262985 0.000400998 5.6965e-05 0 0 0 0 0 0.999951 0.999955 0.999942 0.99989 0.999924 0.999823 0.999391 0.999688 0.998696 0.992097 0.996931 0.977915 0.808366 0.934554 0.533511 0.0615037 0.221894 0.013719 0.000497859 0.00272543 8.44035e-05 0 0 0 
</DataArray>
<DataArray Name="Composition 4" format="ascii" type="Float64">
0 0 0 0 0 0 0 0 0 0 0 0 0 0 0 0 0 0 0 0 0 0 0 0 0 0 0 0 0 0 0 0 0 0 0 0 0 0 0 0 0 0 0 0 0 0 0 0 0 0 0 0 0 0 0 0 0 0 0 0 0 0 0 0 0 0 0 0 0 0 0 0 0 0 0 0 0 0 0 0 0 0 0 0 0 0 0 0 0 0 0 0 0 0 0 0 0 0 0 0 0 0 0 0 0 0 0 0 0 0 0 0 0 0 0 0 0 0 0 0 0 0 0 0 0 0 0 0 0 0 0 0 0 0 0 0 0 0 0 0 0 0 0 0 0 0 0 0 0 0 0 0 0 0 0 0 0 0 0 0 0 0 0 0 0 0 0 0 0 0 0 0 0 0 0 0 0 0 0 0 0 0 0 0 0 0 0 0 0 0 0 0 0 0 0 0 0 0 0 0 0 0 0 0 0 0 0 0 0 0 0 0 0 0 0 0 0 0 0 0 0 0 0 0 0 0 0 0 0 0 0 0 0 0 0 0 0 0 0 0 0 0 0 0 0 0 0 0 0 0 0 0 0 0 0 0 0 0 0 0 0 0 0 0 0 0 0 0 0 0 0 0 0 0 0 0 0 0 0 0 0 0 0 0 0 0 0 0 0 0 0 0 0 0 0 0 0 0 0 0 0 0 0 0 0 0 0 0 0 0 0 0 0 0 0 0 0 0 0 0 0 0 0 0 0 0 0 0 0 0 
</DataArray>
<DataArray Name="Composition 5" format="ascii" type="Float64">
0 0 0 0 0 0 0 0 0 0 0 0 0 0 0 0 0 0 0 0 0 0 0 0 0 0 0 0 0 0 0 0 0 0 0 0 0 0 0 0 0 0 0 0 0 0 0 0 0 0 0 0 0 0 0 0 0 0 0 0 0 0 0 0 0 0 0 0 0 0 0 0 0 0 0 0 0 0 0 0 0 0 0 0 0 0 0 0 0 0 0 0 0 0 0 0 0 0 0 0 0 0 0 0 0 0 0 0 0 0 0 0 0 0 0 0 0 0 0 0 0 0 0 0 0 0 0 0 0 0 0 0 0 0 0 0 0 0 0 0 0 0 0 0 0 0 0 0 0 0 0 0 0 0 0 0 0 0 0 0 0 0 0 0 0 0 0 0 0 0 0 0 0 0 0 0 0 0 0 0 0 0 0 0 0 0 0 0 0 0 0 0 0 0 0 0 0 0 0 0 0 0 0 0 0 0 0 0 0 0 0 0 0 0 0 0 0 0 0 0 0 0 0 0 0 0 0 0 0 0 0 0 0 0 0 0 0 0 0 0 0 0 0 0 0 0 0 0 0 0 0 0 0 0 0 0 0 0 0 0 0 0 0 0 0 0 0 0 0 0 0 0 0 0 0 0 0 0 0 0 0 0 0 0 0 0 0 0 0 0 0 0 0 0 0 0 0 0 0 0 0 0 0 0 0 0 0 0 0 0 0 0 0 0 0 0 0 0 0 0 0 0 0 0 0 0 0 0 0 0 
</DataArray>
<DataArray Name="Composition 6" format="ascii" type="Float64">
0 0 0 0 0 0 0 0 0 0 0 0 0 0 0 0 0 0 0 0 0 0 0 0 0 0 0 0 0 0 0 0 0 0 0 0 0 0 0 0 0 0 0 0 0 0 0 0 0 0 0 0 0 0 0 0 0 0 0 0 0 0 0 0 0 0 0 0 0 0 0 0 0 0 0 0 0 0 0 0 0 0 0 0 0 0 0 0 0 0 0 0 0 0 0 0 0 0 0 0 0 0 0 0 0 0 0 0 0 0 0 0 0 0 0 0 0 0 0 0 0 0 0 0 0 0 0 0 0 0 0 0 0 0 0 0 0 0 0 0 0 0 0 0 0 0 0 0 0 0 0 0 0 0 0 0 0 0 0 0 0 0 0 0 0 0 0 0 0 0 0 0 0 0 0 0 0 0 0 0 0 0 0 0 0 0 0 0 0 0 0 0 0 0 0 0 0 0 0 0 0 0 0 0 0 0 0 0 0 0 0 0 0 0 0 0 0 0 0 0 0 0 0 0 0 0 0 0 0 0 0 0 0 0 0 0 0 0 0 0 0 0 0 0 0 0 0 0 0 0 0 0 0 0 0 0 0 0 0 0 0 0 0 0 0 1 1 0 0 0 0 0 0 0 0 0 0 0 0 0 0 0 0 0 0 0 0 0 0 0 0 0 0 0 0 0 0 0 0 0 0 1 1 1 1 1 0 0 0 0 0 0 0 0 0 0 0 0 0 0 0 0 0 0 0 0 0 1 1 1 
</DataArray>
</PointData>
<CellData>
</CellData>
<Points>
<DataArray NumberOfComponents="3" format="ascii" type="Float64">
157143 19444.4 0 176786 19444.4 0 176786 38888.9 0 157143 38888.9 0 196429 19444.4 0 196429 38888.9 0 176786 58333.3 0 157143 58333.3 0 196429 58333.3 0 98214.3 77777.8 0 117857 77777.8 0 117857 97222.2 0 98214.3 97222.2 0 137500 77777.8 0 137500 97222.2 0 157143 77777.8 0 176786 77777.8 0 176786 97222.2 0 157143 97222.2 0 196429 77777.8 0 196429 97222.2 0 216071 77777.8 0 235714 77777.8 0 235714 97222.2 0 216071 97222.2 0 255357 77777.8 0 255357 97222.2 0 117857 116667 0 98214.3 116667 0 137500 116667 0 176786 116667 0 157143 116667 0 196429 116667 0 235714 116667 0 216071 116667 0 255357 116667 0 0 136111 0 19642.9 136111 0 19642.9 155556 0 0 155556 0 39285.7 136111 0 58928.6 136111 0 58928.6 155556 0 39285.7 155556 0 78571.4 136111 0 78571.4 155556 0 98214.3 136111 0 117857 136111 0 117857 155556 0 98214.3 155556 0 137500 136111 0 137500 155556 0 157143 136111 0 176786 136111 0 176786 155556 0 157143 155556 0 196429 136111 0 196429 155556 0 216071 136111 0 235714 136111 0 235714 155556 0 216071 155556 0 255357 136111 0 255357 155556 0 275000 136111 0 294643 136111 0 294643 155556 0 275000 155556 0 314286 136111 0 314286 155556 0 19642.9 175000 0 0 175000 0 58928.6 175000 0 39285.7 175000 0 78571.4 175000 0 117857 175000 0 98214.3 175000 0 137500 175000 0 176786 175000 0 157143 175000 0 196429 175000 0 235714 175000 0 216071 175000 0 255357 175000 0 294643 175000 0 275000 175000 0 314286 175000 0 491071 175000 0 510714 175000 0 510714 194444 0 491071 194444 0 530357 175000 0 530357 194444 0 0 194444 0 19642.9 194444 0 19642.9 213889 0 0 213889 0 39285.7 194444 0 58928.6 194444 0 58928.6 213889 0 39285.7 213889 0 78571.4 194444 0 78571.4 213889 0 98214.3 194444 0 117857 194444 0 117857 213889 0 98214.3 213889 0 137500 194444 0 137500 213889 0 157143 194444 0 176786 194444 0 176786 213889 0 157143 213889 0 196429 194444 0 196429 213889 0 216071 194444 0 235714 194444 0 235714 213889 0 216071 213889 0 255357 194444 0 255357 213889 0 275000 194444 0 294643 194444 0 294643 213889 0 275000 213889 0 314286 194444 0 314286 213889 0 333929 194444 0 353571 194444 0 353571 213889 0 333929 213889 0 373214 194444 0 373214 213889 0 510714 213889 0 491071 213889 0 530357 213889 0 19642.9 233333 0 0 233333 0 58928.6 233333 0 39285.7 233333 0 78571.4 233333 0 117857 233333 0 98214.3 233333 0 137500 233333 0 176786 233333 0 157143 233333 0 196429 233333 0 235714 233333 0 216071 233333 0 255357 233333 0 294643 233333 0 275000 233333 0 314286 233333 0 353571 233333 0 333929 233333 0 373214 233333 0 392857 233333 0 392857 252778 0 373214 252778 0 412500 233333 0 412500 252778 0 432143 233333 0 451786 233333 0 451786 252778 0 432143 252778 0 471429 233333 0 471429 252778 0 491071 233333 0 510714 233333 0 510714 252778 0 491071 252778 0 530357 233333 0 530357 252778 0 0 252778 0 19642.9 252778 0 19642.9 272222 0 0 272222 0 39285.7 252778 0 58928.6 252778 0 58928.6 272222 0 39285.7 272222 0 78571.4 252778 0 78571.4 272222 0 98214.3 252778 0 117857 252778 0 117857 272222 0 98214.3 272222 0 137500 252778 0 137500 272222 0 157143 252778 0 176786 252778 0 176786 272222 0 157143 272222 0 196429 252778 0 196429 272222 0 216071 252778 0 235714 252778 0 235714 272222 0 216071 272222 0 255357 252778 0 255357 272222 0 275000 252778 0 294643 252778 0 294643 272222 0 275000 272222 0 314286 252778 0 314286 272222 0 333929 252778 0 353571 252778 0 353571 272222 0 333929 272222 0 373214 272222 0 392857 272222 0 412500 272222 0 432143 272222 0 451786 272222 0 471429 272222 0 510714 272222 0 491071 272222 0 530357 272222 0 19642.9 291667 0 0 291667 0 58928.6 291667 0 39285.7 291667 0 78571.4 291667 0 117857 291667 0 98214.3 291667 0 137500 291667 0 176786 291667 0 157143 291667 0 196429 291667 0 235714 291667 0 216071 291667 0 255357 291667 0 294643 291667 0 275000 291667 0 314286 291667 0 353571 291667 0 333929 291667 0 373214 291667 0 412500 291667 0 392857 291667 0 432143 291667 0 275000 311111 0 255357 311111 0 294643 311111 0 333929 311111 0 314286 311111 0 353571 311111 0 392857 311111 0 373214 311111 0 412500 311111 0 451786 291667 0 451786 311111 0 432143 311111 0 471429 291667 0 471429 311111 0 491071 291667 0 510714 291667 0 510714 311111 0 491071 311111 0 530357 291667 0 530357 311111 0 0 311111 0 19642.9 311111 0 19642.9 330556 0 0 330556 0 39285.7 311111 0 58928.6 311111 0 58928.6 330556 0 39285.7 330556 0 78571.4 311111 0 78571.4 330556 0 98214.3 311111 0 117857 311111 0 117857 330556 0 98214.3 330556 0 137500 311111 0 137500 330556 0 157143 311111 0 176786 311111 0 176786 330556 0 157143 330556 0 196429 311111 0 196429 330556 0 216071 311111 0 235714 311111 0 235714 330556 0 216071 330556 0 255357 330556 0 275000 330556 0 294643 330556 0 314286 330556 0 333929 330556 0 353571 330556 0 373214 330556 0 392857 330556 0 412500 330556 0 432143 330556 0 451786 330556 0 471429 330556 0 491071 330556 0 510714 330556 0 530357 330556 0 19642.9 350000 0 0 350000 0 58928.6 350000 0 39285.7 350000 0 78571.4 350000 0 117857 350000 0 98214.3 350000 0 137500 350000 0 176786 350000 0 157143 350000 0 196429 350000 0 235714 350000 0 216071 350000 0 255357 350000 0 294643 350000 0 275000 350000 0 314286 350000 0 353571 350000 0 333929 350000 0 373214 350000 0 412500 350000 0 392857 350000 0 432143 350000 0 471429 350000 0 451786 350000 0 491071 350000 0 
</DataArray>
</Points>
<Cells>
<DataArray Name="connectivity" format="ascii" type="Int64">
0 1 2 3 1 4 5 2 3 2 6 7 2 5 8 6 9 10 11 12 10 13 14 11 15 16 17 18 16 19 20 17 21 22 23 24 22 25 26 23 12 11 27 28 11 14 29 27 18 17 30 31 17 20 32 30 24 23 33 34 23 26 35 33 36 37 38 39 40 41 42 43 41 44 45 42 46 47 48 49 47 50 51 48 52 53 54 55 53 56 57 54 58 59 60 61 59 62 63 60 64 65 66 67 65 68 69 66 39 38 70 71 43 42 72 73 42 45 74 72 49 48 75 76 48 51 77 75 55 54 78 79 54 57 80 78 61 60 81 82 60 63 83 81 67 66 84 85 66 69 86 84 87 88 89 90 88 91 92 89 93 94 95 96 97 98 99 100 98 101 102 99 103 104 105 106 104 107 108 105 109 110 111 112 110 113 114 111 115 116 117 118 116 119 120 117 121 122 123 124 122 125 126 123 127 128 129 130 128 131 132 129 90 89 133 134 89 92 135 133 96 95 136 137 100 99 138 139 99 102 140 138 106 105 141 142 105 108 143 141 112 111 144 145 111 114 146 144 118 117 147 148 117 120 149 147 124 123 150 151 123 126 152 150 130 129 153 154 129 132 155 153 155 156 157 158 156 159 160 157 161 162 163 164 162 165 166 163 167 168 169 170 168 171 172 169 173 174 175 176 177 178 179 180 178 181 182 179 183 184 185 186 184 187 188 185 189 190 191 192 190 193 194 191 195 196 197 198 196 199 200 197 201 202 203 204 202 205 206 203 207 208 209 210 208 158 211 209 158 157 212 211 157 160 213 212 160 164 214 213 164 163 215 214 163 166 216 215 170 169 217 218 169 172 219 217 176 175 220 221 180 179 222 223 179 182 224 222 186 185 225 226 185 188 227 225 192 191 228 229 191 194 230 228 198 197 231 232 197 200 233 231 204 203 234 235 203 206 236 234 210 209 237 238 209 211 239 237 212 213 240 241 213 214 242 240 233 235 243 244 235 234 245 243 236 238 246 247 238 237 248 246 239 241 249 250 241 240 251 249 242 252 253 254 252 255 256 253 257 258 259 260 258 261 262 259 263 264 265 266 267 268 269 270 268 271 272 269 273 274 275 276 274 277 278 275 279 280 281 282 280 283 284 281 285 286 287 288 286 244 289 287 244 243 290 289 243 245 291 290 245 247 292 291 247 246 293 292 246 248 294 293 248 250 295 294 250 249 296 295 249 251 297 296 251 254 298 297 254 253 299 298 253 256 300 299 256 260 301 300 260 259 302 301 259 262 303 302 266 265 304 305 270 269 306 307 269 272 308 306 276 275 309 310 275 278 311 309 282 281 312 313 281 284 314 312 288 287 315 316 287 289 317 315 290 291 318 319 291 292 320 318 293 294 321 322 294 295 323 321 296 297 324 325 297 298 326 324 299 300 327 328 300 301 329 327 
</DataArray>
<DataArray Name="offsets" format="ascii" type="Int64">
4 8 12 16 20 24 28 32 36 40 44 48 52 56 60 64 68 72 76 80 84 88 92 96 100 104 108 112 116 120 124 128 132 136 140 144 148 152 156 160 164 168 172 176 180 184 188 192 196 200 204 208 212 216 220 224 228 232 236 240 244 248 252 256 260 264 268 272 276 280 284 288 292 296 300 304 308 312 316 320 324 328 332 336 340 344 348 352 356 360 364 368 372 376 380 384 388 392 396 400 404 408 412 416 420 424 428 432 436 440 444 448 452 456 460 464 468 472 476 480 484 488 492 496 500 504 508 512 516 520 524 528 532 536 540 544 548 552 556 560 564 568 572 576 580 584 588 592 596 600 604 608 612 616 620 624 628 632 636 
</DataArray>
<DataArray Name="types" format="ascii" type="Int8">
9 9 9 9 9 9 9 9 9 9 9 9 9 9 9 9 9 9 9 9 9 9 9 9 9 9 9 9 9 9 9 9 9 9 9 9 9 9 9 9 9 9 9 9 9 9 9 9 9 9 9 9 9 9 9 9 9 9 9 9 9 9 9 9 9 9 9 9 9 9 9 9 9 9 9 9 9 9 9 9 9 9 9 9 9 9 9 9 9 9 9 9 9 9 9 9 9 9 9 9 9 9 9 9 9 9 9 9 9 9 9 9 9 9 9 9 9 9 9 9 9 9 9 9 9 9 9 9 9 9 9 9 9 9 9 9 9 9 9 9 9 9 9 9 9 9 9 9 9 9 9 9 9 9 9 9 9 9 9 
</DataArray>
</Cells>
</Piece>
</UnstructuredGrid>
</VTKFile>
