<?xml version="1.0"?>
<VTKFile byte_order="LittleEndian" type="UnstructuredGrid" version="0.1">
<UnstructuredGrid>
<Piece NumberOfCells="1925" NumberOfPoints="2016">
<PointData>
<DataArray Name="Depth wrt surface" format="ascii" type="Float64">
350000 350000 350000 350000 350000 350000 350000 350000 350000 350000 350000 350000 350000 350000 350000 350000 350000 350000 350000 350000 350000 350000 350000 350000 350000 350000 350000 350000 350000 350000 350000 350000 350000 350000 350000 350000 350000 350000 350000 350000 350000 350000 350000 350000 350000 350000 350000 350000 350000 350000 350000 350000 350000 350000 350000 350000 340000 340000 340000 340000 340000 340000 340000 340000 340000 340000 340000 340000 340000 340000 340000 340000 340000 340000 340000 340000 340000 340000 340000 340000 340000 340000 340000 340000 340000 340000 340000 340000 340000 340000 340000 340000 340000 340000 340000 340000 340000 340000 340000 340000 340000 340000 340000 340000 340000 340000 340000 340000 340000 340000 340000 340000 330000 330000 330000 330000 330000 330000 330000 330000 330000 330000 330000 330000 330000 330000 330000 330000 330000 330000 330000 330000 330000 330000 330000 330000 330000 330000 330000 330000 330000 330000 330000 330000 330000 330000 330000 330000 330000 330000 330000 330000 330000 330000 330000 330000 330000 330000 330000 330000 330000 330000 330000 330000 330000 330000 330000 330000 320000 320000 320000 320000 320000 320000 320000 320000 320000 320000 320000 320000 320000 320000 320000 320000 320000 320000 320000 320000 320000 320000 320000 320000 320000 320000 320000 320000 320000 320000 320000 320000 320000 320000 320000 320000 320000 320000 320000 320000 320000 320000 320000 320000 320000 320000 320000 320000 320000 320000 320000 320000 320000 320000 320000 320000 310000 310000 310000 310000 310000 310000 310000 310000 310000 310000 310000 310000 310000 310000 310000 310000 310000 310000 310000 310000 310000 310000 310000 310000 310000 310000 310000 310000 310000 310000 310000 310000 310000 310000 310000 310000 310000 310000 310000 310000 310000 310000 310000 310000 310000 310000 310000 310000 310000 310000 310000 310000 310000 310000 310000 310000 300000 300000 300000 300000 300000 300000 300000 300000 300000 300000 300000 300000 300000 300000 300000 300000 300000 300000 300000 300000 300000 300000 300000 300000 300000 300000 300000 300000 300000 300000 300000 300000 300000 300000 300000 300000 300000 300000 300000 300000 300000 300000 300000 300000 300000 300000 300000 300000 300000 300000 300000 300000 300000 300000 300000 300000 290000 290000 290000 290000 290000 290000 290000 290000 290000 290000 290000 290000 290000 290000 290000 290000 290000 290000 290000 290000 290000 290000 290000 290000 290000 290000 290000 290000 290000 290000 290000 290000 290000 290000 290000 290000 290000 290000 290000 290000 290000 290000 290000 290000 290000 290000 290000 290000 290000 290000 290000 290000 290000 290000 290000 290000 280000 280000 280000 280000 280000 280000 280000 280000 280000 280000 280000 280000 280000 280000 280000 280000 280000 280000 280000 280000 280000 280000 280000 280000 280000 280000 280000 280000 280000 280000 280000 280000 280000 280000 280000 280000 280000 280000 280000 280000 280000 280000 280000 280000 280000 280000 280000 280000 280000 280000 280000 280000 280000 280000 280000 280000 270000 270000 270000 270000 270000 270000 270000 270000 270000 270000 270000 270000 270000 270000 270000 270000 270000 270000 270000 270000 270000 270000 270000 270000 270000 270000 270000 270000 270000 270000 270000 270000 270000 270000 270000 270000 270000 270000 270000 270000 270000 270000 270000 270000 270000 270000 270000 270000 270000 270000 270000 270000 270000 270000 270000 270000 260000 260000 260000 260000 260000 260000 260000 260000 260000 260000 260000 260000 260000 260000 260000 260000 260000 260000 260000 260000 260000 260000 260000 260000 260000 260000 260000 260000 260000 260000 260000 260000 260000 260000 260000 260000 260000 260000 260000 260000 260000 260000 260000 260000 260000 260000 260000 260000 260000 260000 260000 260000 260000 260000 260000 260000 250000 250000 250000 250000 250000 250000 250000 250000 250000 250000 250000 250000 250000 250000 250000 250000 250000 250000 250000 250000 250000 250000 250000 250000 250000 250000 250000 250000 250000 250000 250000 250000 250000 250000 250000 250000 250000 250000 250000 250000 250000 250000 250000 250000 250000 250000 250000 250000 250000 250000 250000 250000 250000 250000 250000 250000 240000 240000 240000 240000 240000 240000 240000 240000 240000 240000 240000 240000 240000 240000 240000 240000 240000 240000 240000 240000 240000 240000 240000 240000 240000 240000 240000 240000 240000 240000 240000 240000 240000 240000 240000 240000 240000 240000 240000 240000 240000 240000 240000 240000 240000 240000 240000 240000 240000 240000 240000 240000 240000 240000 240000 240000 230000 230000 230000 230000 230000 230000 230000 230000 230000 230000 230000 230000 230000 230000 230000 230000 230000 230000 230000 230000 230000 230000 230000 230000 230000 230000 230000 230000 230000 230000 230000 230000 230000 230000 230000 230000 230000 230000 230000 230000 230000 230000 230000 230000 230000 230000 230000 230000 230000 230000 230000 230000 230000 230000 230000 230000 220000 220000 220000 220000 220000 220000 220000 220000 220000 220000 220000 220000 220000 220000 220000 220000 220000 220000 220000 220000 220000 220000 220000 220000 220000 220000 220000 220000 220000 220000 220000 220000 220000 220000 220000 220000 220000 220000 220000 220000 220000 220000 220000 220000 220000 220000 220000 220000 220000 220000 220000 220000 220000 220000 220000 220000 210000 210000 210000 210000 210000 210000 210000 210000 210000 210000 210000 210000 210000 210000 210000 210000 210000 210000 210000 210000 210000 210000 210000 210000 210000 210000 210000 210000 210000 210000 210000 210000 210000 210000 210000 210000 210000 210000 210000 210000 210000 210000 210000 210000 210000 210000 210000 210000 210000 210000 210000 210000 210000 210000 210000 210000 200000 200000 200000 200000 200000 200000 200000 200000 200000 200000 200000 200000 200000 200000 200000 200000 200000 200000 200000 200000 200000 200000 200000 200000 200000 200000 200000 200000 200000 200000 200000 200000 200000 200000 200000 200000 200000 200000 200000 200000 200000 200000 200000 200000 200000 200000 200000 200000 200000 200000 200000 200000 200000 200000 200000 200000 190000 190000 190000 190000 190000 190000 190000 190000 190000 190000 190000 190000 190000 190000 190000 190000 190000 190000 190000 190000 190000 190000 190000 190000 190000 190000 190000 190000 190000 190000 190000 190000 190000 190000 190000 190000 190000 190000 190000 190000 190000 190000 190000 190000 190000 190000 190000 190000 190000 190000 190000 190000 190000 190000 190000 190000 180000 180000 180000 180000 180000 180000 180000 180000 180000 180000 180000 180000 180000 180000 180000 180000 180000 180000 180000 180000 180000 180000 180000 180000 180000 180000 180000 180000 180000 180000 180000 180000 180000 180000 180000 180000 180000 180000 180000 180000 180000 180000 180000 180000 180000 180000 180000 180000 180000 180000 180000 180000 180000 180000 180000 180000 170000 170000 170000 170000 170000 170000 170000 170000 170000 170000 170000 170000 170000 170000 170000 170000 170000 170000 170000 170000 170000 170000 170000 170000 170000 170000 170000 170000 170000 170000 170000 170000 170000 170000 170000 170000 170000 170000 170000 170000 170000 170000 170000 170000 170000 170000 170000 170000 170000 170000 170000 170000 170000 170000 170000 170000 160000 160000 160000 160000 160000 160000 160000 160000 160000 160000 160000 160000 160000 160000 160000 160000 160000 160000 160000 160000 160000 160000 160000 160000 160000 160000 160000 160000 160000 160000 160000 160000 160000 160000 160000 160000 160000 160000 160000 160000 160000 160000 160000 160000 160000 160000 160000 160000 160000 160000 160000 160000 160000 160000 160000 160000 150000 150000 150000 150000 150000 150000 150000 150000 150000 150000 150000 150000 150000 150000 150000 150000 150000 150000 150000 150000 150000 150000 150000 150000 150000 150000 150000 150000 150000 150000 150000 150000 150000 150000 150000 150000 150000 150000 150000 150000 150000 150000 150000 150000 150000 150000 150000 150000 150000 150000 150000 150000 150000 150000 150000 150000 140000 140000 140000 140000 140000 140000 140000 140000 140000 140000 140000 140000 140000 140000 140000 140000 140000 140000 140000 140000 140000 140000 140000 140000 140000 140000 140000 140000 140000 140000 140000 140000 140000 140000 140000 140000 140000 140000 140000 140000 140000 140000 140000 140000 140000 140000 140000 140000 140000 140000 140000 140000 140000 140000 140000 140000 130000 130000 130000 130000 130000 130000 130000 130000 130000 130000 130000 130000 130000 130000 130000 130000 130000 130000 130000 130000 130000 130000 130000 130000 130000 130000 130000 130000 130000 130000 130000 130000 130000 130000 130000 130000 130000 130000 130000 130000 130000 130000 130000 130000 130000 130000 130000 130000 130000 130000 130000 130000 130000 130000 130000 130000 120000 120000 120000 120000 120000 120000 120000 120000 120000 120000 120000 120000 120000 120000 120000 120000 120000 120000 120000 120000 120000 120000 120000 120000 120000 120000 120000 120000 120000 120000 120000 120000 120000 120000 120000 120000 120000 120000 120000 120000 120000 120000 120000 120000 120000 120000 120000 120000 120000 120000 120000 120000 120000 120000 120000 120000 110000 110000 110000 110000 110000 110000 110000 110000 110000 110000 110000 110000 110000 110000 110000 110000 110000 110000 110000 110000 110000 110000 110000 110000 110000 110000 110000 110000 110000 110000 110000 110000 110000 110000 110000 110000 110000 110000 110000 110000 110000 110000 110000 110000 110000 110000 110000 110000 110000 110000 110000 110000 110000 110000 110000 110000 100000 100000 100000 100000 100000 100000 100000 100000 100000 100000 100000 100000 100000 100000 100000 100000 100000 100000 100000 100000 100000 100000 100000 100000 100000 100000 100000 100000 100000 100000 100000 100000 100000 100000 100000 100000 100000 100000 100000 100000 100000 100000 100000 100000 100000 100000 100000 100000 100000 100000 100000 100000 100000 100000 100000 100000 90000 90000 90000 90000 90000 90000 90000 90000 90000 90000 90000 90000 90000 90000 90000 90000 90000 90000 90000 90000 90000 90000 90000 90000 90000 90000 90000 90000 90000 90000 90000 90000 90000 90000 90000 90000 90000 90000 90000 90000 90000 90000 90000 90000 90000 90000 90000 90000 90000 90000 90000 90000 90000 90000 90000 90000 80000 80000 80000 80000 80000 80000 80000 80000 80000 80000 80000 80000 80000 80000 80000 80000 80000 80000 80000 80000 80000 80000 80000 80000 80000 80000 80000 80000 80000 80000 80000 80000 80000 80000 80000 80000 80000 80000 80000 80000 80000 80000 80000 80000 80000 80000 80000 80000 80000 80000 80000 80000 80000 80000 80000 80000 70000 70000 70000 70000 70000 70000 70000 70000 70000 70000 70000 70000 70000 70000 70000 70000 70000 70000 70000 70000 70000 70000 70000 70000 70000 70000 70000 70000 70000 70000 70000 70000 70000 70000 70000 70000 70000 70000 70000 70000 70000 70000 70000 70000 70000 70000 70000 70000 70000 70000 70000 70000 70000 70000 70000 70000 60000 60000 60000 60000 60000 60000 60000 60000 60000 60000 60000 60000 60000 60000 60000 60000 60000 60000 60000 60000 60000 60000 60000 60000 60000 60000 60000 60000 60000 60000 60000 60000 60000 60000 60000 60000 60000 60000 60000 60000 60000 60000 60000 60000 60000 60000 60000 60000 60000 60000 60000 60000 60000 60000 60000 60000 50000 50000 50000 50000 50000 50000 50000 50000 50000 50000 50000 50000 50000 50000 50000 50000 50000 50000 50000 50000 50000 50000 50000 50000 50000 50000 50000 50000 50000 50000 50000 50000 50000 50000 50000 50000 50000 50000 50000 50000 50000 50000 50000 50000 50000 50000 50000 50000 50000 50000 50000 50000 50000 50000 50000 50000 40000 40000 40000 40000 40000 40000 40000 40000 40000 40000 40000 40000 40000 40000 40000 40000 40000 40000 40000 40000 40000 40000 40000 40000 40000 40000 40000 40000 40000 40000 40000 40000 40000 40000 40000 40000 40000 40000 40000 40000 40000 40000 40000 40000 40000 40000 40000 40000 40000 40000 40000 40000 40000 40000 40000 40000 30000 30000 30000 30000 30000 30000 30000 30000 30000 30000 30000 30000 30000 30000 30000 30000 30000 30000 30000 30000 30000 30000 30000 30000 30000 30000 30000 30000 30000 30000 30000 30000 30000 30000 30000 30000 30000 30000 30000 30000 30000 30000 30000 30000 30000 30000 30000 30000 30000 30000 30000 30000 30000 30000 30000 30000 20000 20000 20000 20000 20000 20000 20000 20000 20000 20000 20000 20000 20000 20000 20000 20000 20000 20000 20000 20000 20000 20000 20000 20000 20000 20000 20000 20000 20000 20000 20000 20000 20000 20000 20000 20000 20000 20000 20000 20000 20000 20000 20000 20000 20000 20000 20000 20000 20000 20000 20000 20000 20000 20000 20000 20000 10000 10000 10000 10000 10000 10000 10000 10000 10000 10000 10000 10000 10000 10000 10000 10000 10000 10000 10000 10000 10000 10000 10000 10000 10000 10000 10000 10000 10000 10000 10000 10000 10000 10000 10000 10000 10000 10000 10000 10000 10000 10000 10000 10000 10000 10000 10000 10000 10000 10000 10000 10000 10000 10000 10000 10000 0 0 0 0 0 0 0 0 0 0 0 0 0 0 0 0 0 0 0 0 0 0 0 0 0 0 0 0 0 0 0 0 0 0 0 0 0 0 0 0 0 0 0 0 0 0 0 0 0 0 0 0 0 0 0 0 
</DataArray>
<DataArray Name="Depth wrt reference" format="ascii" type="Float64">
350000 350000 350000 350000 350000 350000 350000 350000 350000 350000 350000 350000 350000 350000 350000 350000 350000 350000 350000 350000 350000 350000 350000 350000 350000 350000 350000 350000 350000 350000 350000 350000 350000 350000 350000 350000 350000 350000 350000 350000 350000 350000 350000 350000 350000 350000 350000 350000 350000 350000 350000 350000 350000 350000 350000 350000 340000 340000 340000 340000 340000 340000 340000 340000 340000 340000 340000 340000 340000 340000 340000 340000 340000 340000 340000 340000 340000 340000 340000 340000 340000 340000 340000 340000 340000 340000 340000 340000 340000 340000 340000 340000 340000 340000 340000 340000 340000 340000 340000 340000 340000 340000 340000 340000 340000 340000 340000 340000 340000 340000 340000 340000 330000 330000 330000 330000 330000 330000 330000 330000 330000 330000 330000 330000 330000 330000 330000 330000 330000 330000 330000 330000 330000 330000 330000 330000 330000 330000 330000 330000 330000 330000 330000 330000 330000 330000 330000 330000 330000 330000 330000 330000 330000 330000 330000 330000 330000 330000 330000 330000 330000 330000 330000 330000 330000 330000 330000 330000 320000 320000 320000 320000 320000 320000 320000 320000 320000 320000 320000 320000 320000 320000 320000 320000 320000 320000 320000 320000 320000 320000 320000 320000 320000 320000 320000 320000 320000 320000 320000 320000 320000 320000 320000 320000 320000 320000 320000 320000 320000 320000 320000 320000 320000 320000 320000 320000 320000 320000 320000 320000 320000 320000 320000 320000 310000 310000 310000 310000 310000 310000 310000 310000 310000 310000 310000 310000 310000 310000 310000 310000 310000 310000 310000 310000 310000 310000 310000 310000 310000 310000 310000 310000 310000 310000 310000 310000 310000 310000 310000 310000 310000 310000 310000 310000 310000 310000 310000 310000 310000 310000 310000 310000 310000 310000 310000 310000 310000 310000 310000 310000 300000 300000 300000 300000 300000 300000 300000 300000 300000 300000 300000 300000 300000 300000 300000 300000 300000 300000 300000 300000 300000 300000 300000 300000 300000 300000 300000 300000 300000 300000 300000 300000 300000 300000 300000 300000 300000 300000 300000 300000 300000 300000 300000 300000 300000 300000 300000 300000 300000 300000 300000 300000 300000 300000 300000 300000 290000 290000 290000 290000 290000 290000 290000 290000 290000 290000 290000 290000 290000 290000 290000 290000 290000 290000 290000 290000 290000 290000 290000 290000 290000 290000 290000 290000 290000 290000 290000 290000 290000 290000 290000 290000 290000 290000 290000 290000 290000 290000 290000 290000 290000 290000 290000 290000 290000 290000 290000 290000 290000 290000 290000 290000 280000 280000 280000 280000 280000 280000 280000 280000 280000 280000 280000 280000 280000 280000 280000 280000 280000 280000 280000 280000 280000 280000 280000 280000 280000 280000 280000 280000 280000 280000 280000 280000 280000 280000 280000 280000 280000 280000 280000 280000 280000 280000 280000 280000 280000 280000 280000 280000 280000 280000 280000 280000 280000 280000 280000 280000 270000 270000 270000 270000 270000 270000 270000 270000 270000 270000 270000 270000 270000 270000 270000 270000 270000 270000 270000 270000 270000 270000 270000 270000 270000 270000 270000 270000 270000 270000 270000 270000 270000 270000 270000 270000 270000 270000 270000 270000 270000 270000 270000 270000 270000 270000 270000 270000 270000 270000 270000 270000 270000 270000 270000 270000 260000 260000 260000 260000 260000 260000 260000 260000 260000 260000 260000 260000 260000 260000 260000 260000 260000 260000 260000 260000 260000 260000 260000 260000 260000 260000 260000 260000 260000 260000 260000 260000 260000 260000 260000 260000 260000 260000 260000 260000 260000 260000 260000 260000 260000 260000 260000 260000 260000 260000 260000 260000 260000 260000 260000 260000 250000 250000 250000 250000 250000 250000 250000 250000 250000 250000 250000 250000 250000 250000 250000 250000 250000 250000 250000 250000 250000 250000 250000 250000 250000 250000 250000 250000 250000 250000 250000 250000 250000 250000 250000 250000 250000 250000 250000 250000 250000 250000 250000 250000 250000 250000 250000 250000 250000 250000 250000 250000 250000 250000 250000 250000 240000 240000 240000 240000 240000 240000 240000 240000 240000 240000 240000 240000 240000 240000 240000 240000 240000 240000 240000 240000 240000 240000 240000 240000 240000 240000 240000 240000 240000 240000 240000 240000 240000 240000 240000 240000 240000 240000 240000 240000 240000 240000 240000 240000 240000 240000 240000 240000 240000 240000 240000 240000 240000 240000 240000 240000 230000 230000 230000 230000 230000 230000 230000 230000 230000 230000 230000 230000 230000 230000 230000 230000 230000 230000 230000 230000 230000 230000 230000 230000 230000 230000 230000 230000 230000 230000 230000 230000 230000 230000 230000 230000 230000 230000 230000 230000 230000 230000 230000 230000 230000 230000 230000 230000 230000 230000 230000 230000 230000 230000 230000 230000 220000 220000 220000 220000 220000 220000 220000 220000 220000 220000 220000 220000 220000 220000 220000 220000 220000 220000 220000 220000 220000 220000 220000 220000 220000 220000 220000 220000 220000 220000 220000 220000 220000 220000 220000 220000 220000 220000 220000 220000 220000 220000 220000 220000 220000 220000 220000 220000 220000 220000 220000 220000 220000 220000 220000 220000 210000 210000 210000 210000 210000 210000 210000 210000 210000 210000 210000 210000 210000 210000 210000 210000 210000 210000 210000 210000 210000 210000 210000 210000 210000 210000 210000 210000 210000 210000 210000 210000 210000 210000 210000 210000 210000 210000 210000 210000 210000 210000 210000 210000 210000 210000 210000 210000 210000 210000 210000 210000 210000 210000 210000 210000 200000 200000 200000 200000 200000 200000 200000 200000 200000 200000 200000 200000 200000 200000 200000 200000 200000 200000 200000 200000 200000 200000 200000 200000 200000 200000 200000 200000 200000 200000 200000 200000 200000 200000 200000 200000 200000 200000 200000 200000 200000 200000 200000 200000 200000 200000 200000 200000 200000 200000 200000 200000 200000 200000 200000 200000 190000 190000 190000 190000 190000 190000 190000 190000 190000 190000 190000 190000 190000 190000 190000 190000 190000 190000 190000 190000 190000 190000 190000 190000 190000 190000 190000 190000 190000 190000 190000 190000 190000 190000 190000 190000 190000 190000 190000 190000 190000 190000 190000 190000 190000 190000 190000 190000 190000 190000 190000 190000 190000 190000 190000 190000 180000 180000 180000 180000 180000 180000 180000 180000 180000 180000 180000 180000 180000 180000 180000 180000 180000 180000 180000 180000 180000 180000 180000 180000 180000 180000 180000 180000 180000 180000 180000 180000 180000 180000 180000 180000 180000 180000 180000 180000 180000 180000 180000 180000 180000 180000 180000 180000 180000 180000 180000 180000 180000 180000 180000 180000 170000 170000 170000 170000 170000 170000 170000 170000 170000 170000 170000 170000 170000 170000 170000 170000 170000 170000 170000 170000 170000 170000 170000 170000 170000 170000 170000 170000 170000 170000 170000 170000 170000 170000 170000 170000 170000 170000 170000 170000 170000 170000 170000 170000 170000 170000 170000 170000 170000 170000 170000 170000 170000 170000 170000 170000 160000 160000 160000 160000 160000 160000 160000 160000 160000 160000 160000 160000 160000 160000 160000 160000 160000 160000 160000 160000 160000 160000 160000 160000 160000 160000 160000 160000 160000 160000 160000 160000 160000 160000 160000 160000 160000 160000 160000 160000 160000 160000 160000 160000 160000 160000 160000 160000 160000 160000 160000 160000 160000 160000 160000 160000 150000 150000 150000 150000 150000 150000 150000 150000 150000 150000 150000 150000 150000 150000 150000 150000 150000 150000 150000 150000 150000 150000 150000 150000 150000 150000 150000 150000 150000 150000 150000 150000 150000 150000 150000 150000 150000 150000 150000 150000 150000 150000 150000 150000 150000 150000 150000 150000 150000 150000 150000 150000 150000 150000 150000 150000 140000 140000 140000 140000 140000 140000 140000 140000 140000 140000 140000 140000 140000 140000 140000 140000 140000 140000 140000 140000 140000 140000 140000 140000 140000 140000 140000 140000 140000 140000 140000 140000 140000 140000 140000 140000 140000 140000 140000 140000 140000 140000 140000 140000 140000 140000 140000 140000 140000 140000 140000 140000 140000 140000 140000 140000 130000 130000 130000 130000 130000 130000 130000 130000 130000 130000 130000 130000 130000 130000 130000 130000 130000 130000 130000 130000 130000 130000 130000 130000 130000 130000 130000 130000 130000 130000 130000 130000 130000 130000 130000 130000 130000 130000 130000 130000 130000 130000 130000 130000 130000 130000 130000 130000 130000 130000 130000 130000 130000 130000 130000 130000 120000 120000 120000 120000 120000 120000 120000 120000 120000 120000 120000 120000 120000 120000 120000 120000 120000 120000 120000 120000 120000 120000 120000 120000 120000 120000 120000 120000 120000 120000 120000 120000 120000 120000 120000 120000 120000 120000 120000 120000 120000 120000 120000 120000 120000 120000 120000 120000 120000 120000 120000 120000 120000 120000 120000 120000 110000 110000 110000 110000 110000 110000 110000 110000 110000 110000 110000 110000 110000 110000 110000 110000 110000 110000 110000 110000 110000 110000 110000 110000 110000 110000 110000 110000 110000 110000 110000 110000 110000 110000 110000 110000 110000 110000 110000 110000 110000 110000 110000 110000 110000 110000 110000 110000 110000 110000 110000 110000 110000 110000 110000 110000 100000 100000 100000 100000 100000 100000 100000 100000 100000 100000 100000 100000 100000 100000 100000 100000 100000 100000 100000 100000 100000 100000 100000 100000 100000 100000 100000 100000 100000 100000 100000 100000 100000 100000 100000 100000 100000 100000 100000 100000 100000 100000 100000 100000 100000 100000 100000 100000 100000 100000 100000 100000 100000 100000 100000 100000 90000 90000 90000 90000 90000 90000 90000 90000 90000 90000 90000 90000 90000 90000 90000 90000 90000 90000 90000 90000 90000 90000 90000 90000 90000 90000 90000 90000 90000 90000 90000 90000 90000 90000 90000 90000 90000 90000 90000 90000 90000 90000 90000 90000 90000 90000 90000 90000 90000 90000 90000 90000 90000 90000 90000 90000 80000 80000 80000 80000 80000 80000 80000 80000 80000 80000 80000 80000 80000 80000 80000 80000 80000 80000 80000 80000 80000 80000 80000 80000 80000 80000 80000 80000 80000 80000 80000 80000 80000 80000 80000 80000 80000 80000 80000 80000 80000 80000 80000 80000 80000 80000 80000 80000 80000 80000 80000 80000 80000 80000 80000 80000 70000 70000 70000 70000 70000 70000 70000 70000 70000 70000 70000 70000 70000 70000 70000 70000 70000 70000 70000 70000 70000 70000 70000 70000 70000 70000 70000 70000 70000 70000 70000 70000 70000 70000 70000 70000 70000 70000 70000 70000 70000 70000 70000 70000 70000 70000 70000 70000 70000 70000 70000 70000 70000 70000 70000 70000 60000 60000 60000 60000 60000 60000 60000 60000 60000 60000 60000 60000 60000 60000 60000 60000 60000 60000 60000 60000 60000 60000 60000 60000 60000 60000 60000 60000 60000 60000 60000 60000 60000 60000 60000 60000 60000 60000 60000 60000 60000 60000 60000 60000 60000 60000 60000 60000 60000 60000 60000 60000 60000 60000 60000 60000 50000 50000 50000 50000 50000 50000 50000 50000 50000 50000 50000 50000 50000 50000 50000 50000 50000 50000 50000 50000 50000 50000 50000 50000 50000 50000 50000 50000 50000 50000 50000 50000 50000 50000 50000 50000 50000 50000 50000 50000 50000 50000 50000 50000 50000 50000 50000 50000 50000 50000 50000 50000 50000 50000 50000 50000 40000 40000 40000 40000 40000 40000 40000 40000 40000 40000 40000 40000 40000 40000 40000 40000 40000 40000 40000 40000 40000 40000 40000 40000 40000 40000 40000 40000 40000 40000 40000 40000 40000 40000 40000 40000 40000 40000 40000 40000 40000 40000 40000 40000 40000 40000 40000 40000 40000 40000 40000 40000 40000 40000 40000 40000 30000 30000 30000 30000 30000 30000 30000 30000 30000 30000 30000 30000 30000 30000 30000 30000 30000 30000 30000 30000 30000 30000 30000 30000 30000 30000 30000 30000 30000 30000 30000 30000 30000 30000 30000 30000 30000 30000 30000 30000 30000 30000 30000 30000 30000 30000 30000 30000 30000 30000 30000 30000 30000 30000 30000 30000 20000 20000 20000 20000 20000 20000 20000 20000 20000 20000 20000 20000 20000 20000 20000 20000 20000 20000 20000 20000 20000 20000 20000 20000 20000 20000 20000 20000 20000 20000 20000 20000 20000 20000 20000 20000 20000 20000 20000 20000 20000 20000 20000 20000 20000 20000 20000 20000 20000 20000 20000 20000 20000 20000 20000 20000 10000 10000 10000 10000 10000 10000 10000 10000 10000 10000 10000 10000 10000 10000 10000 10000 10000 10000 10000 10000 10000 10000 10000 10000 10000 10000 10000 10000 10000 10000 10000 10000 10000 10000 10000 10000 10000 10000 10000 10000 10000 10000 10000 10000 10000 10000 10000 10000 10000 10000 10000 10000 10000 10000 10000 10000 0 0 0 0 0 0 0 0 0 0 0 0 0 0 0 0 0 0 0 0 0 0 0 0 0 0 0 0 0 0 0 0 0 0 0 0 0 0 0 0 0 0 0 0 0 0 0 0 0 0 0 0 0 0 0 0 
</DataArray>
<DataArray Name="Topography" format="ascii" type="Float64">